         112 PROCESSORS WORKING

         
 *******************************************************************************
 *                                                                             *
 *                               CRYSTAL17                                     *
 *                      public : 1.0.2 - March 1st, 2018                       *
 *                       HTTP://WWW.CRYSTAL.UNITO.IT                           *
 *                                                                             *
 *                              MAIN AUTHORS                                   *
 *                                                                             *
 *  R. DOVESI(1,11), V.R. SAUNDERS(2), C. ROETTI(1,11), R. ORLANDO(1,11),      *
 *  C.M. ZICOVICH-WILSON(1,3), F. PASCALE(4), B. CIVALLERI(1,11),              *
 *  K. DOLL(5), N.M. HARRISON(2,6), I.J. BUSH(7), Ph. D'ARCO(8),               *
 *  M. LLUNELL(9), M. CAUSA'(10), Y. NOEL(8), L. MASCHIO(1,11), A. ERBA(1,11)  *
 *  M. RE'RAT(14), S. CASASSA(1,11)                                            *
 *                                                                             *
 *        CONTRIBUTIONS TO THE CODE HAVE ALSO BEEN GIVEN BY                    *
 *                                                                             *
 *  M. FERRABONE(1,11), M. DE LA PIERRE(1,11), M. FERRERO(1,11),               *
 *  J. BAIMA(1,11), E. ALBANESE(1,11), M.F. PEINTINGER(12), R. BAST(13),       *
 *  B. KIRTMAN(15), V. LACIVITA(1,11), R. DEMICHELIS(1,16)                     *
 *  G. BRANDEBURG(17), S. SALUSTRO(1,11), G. SANSONE(1,11)                     *
 *  M.T. RUGGIERO(18)                                                          *
 *                                                                             *
 * (1) THEORETICAL CHEMISTRY GROUP - UNIVERSITA' DI TORINO - TORINO (ITALY)    *
 * (2) COMPUTATIONAL SCIENCE & ENGINEERING DEPARTMENT - STFC DARESBURY (UK)    *
 * (3) UNIVERSIDAD AUTONOMA DEL ESTADO DE MORELOS - CUERNAVACA (MEXICO)        *
 * (4) UNIVERSITE' DE LORRAINE - NANCY (FRANCE)                                *
 * (5) UNIVERSITAET STUTTGART- STUTTGART (GERMANY)                             *
 * (6) IMPERIAL COLLEGE - LONDON (UK)                                          *
 * (7) OXFORD E-RESEARCH CENTRE - OXFORD (UK)                                  *
 * (8) UPMC - SORBONNE UNIVERSITES - PARIS (FRANCE)                            *
 * (9) UNIVERSIDAD DE BARCELONA - BARCELONA (SPAIN)                            *
 *(10) UNIVERSITA' DI NAPOLI "FEDERICO II" - NAPOLI (ITALY)                    *
 *(11) NIS - NANOSTRUCTURED INTERFACES AND SURFACES - TORINO (ITALY)           *
 *(12) MPI FUER CHEMISCHE ENERGIEKONVERSION - MUELHEIM AN DER RUHR (GERMANY)   *
 *(13) UNIVERSITY OF TROMSO - TROMSO (NORWAY)                                  *
 *(14) UNIVERSITE' DE PAU ET DES PAYS DE L'ADOUR - PAU (FRANCE)                *
 *(15) UNIVERSITY OF CALIFORNIA SANTA BARBARA - SANTA BARBARA (USA)            *
 *(16) CURTIN UNIVERSITY - PERTH (AUSTRALIA)                                   *
 *(17) UNIVERSITY COLLEGE LONDON - LONDON (UK)                                 *
 *(18) CAMBRIDGE UNIVERSITY - CAMBRIDGE (UK)                                   *
 *                                                                             *
 *******************************************************************************
 EEEEEEEEEE STARTING  DATE 13 04 2021 TIME 18:26:59.7
 Crystal_bare(2x1)                                                               

 GEOMETRY INPUT FROM EXTERNAL FILE (FORTRAN UNIT 34)
 2D - SLAB    

 *******************************************************************************
 LATTICE PARAMETERS  (ANGSTROMS AND DEGREES) - PRIMITIVE CELL
       A          B          C        ALPHA      BETA     GAMMA        VOLUME
    5.08127    5.08127  500.00000    90.00000  90.00000  90.00000     25.819298
 INFORMATION **** CHKGRP **** SPGR WITH NO INVERSION

 NUMBER OF IRREDUCIBLE ATOMS IN THE CELL:   64

 CARTESIAN COORDINATES (ANGSTROM) - IRREDUCIBLE ATOMS AND SYMMETRY RELATED

 AT.IRR.  AT  AT.N.          X                   Y                   Z
     1     1     6   -1.212513377915E+00 -2.379251286072E+00  4.878508295502E+00
     2     2     6   -5.841014295190E-01  5.828808001910E-01  4.879440908551E+00
     3     3     6   -2.380675646109E+00 -1.213615994606E+00  4.879415339730E+00
     4     4     6    5.839551653810E-01 -5.826689844850E-01  4.878594817660E+00
     5     5     6   -1.738864704072E+00 -5.788453106900E-02  4.050550207294E+00
     6     6     6    1.738178363650E+00  5.856907375700E-02  4.049089299788E+00
     7     7     6   -5.830867683800E-02 -1.737902865851E+00  4.049129110620E+00
     8     8     6    5.762710419600E-02  1.738583803731E+00  4.050484922351E+00
     9     9     6    8.986377110430E-01 -2.695104385788E+00  3.234161621607E+00
    10    10     6    8.969629778190E-01  8.995350213990E-01  3.056457277836E+00
    11    11     6    2.695123757311E+00 -8.986327075480E-01  3.234129242080E+00
    12    12     6   -8.995313591390E-01 -8.969449533020E-01  3.056491923409E+00
    13    13     6    2.303981640000E-04 -3.593211336539E+00  2.298403348820E+00
    14    14     6   -1.010811869000E-03  1.015713210000E-03  2.195821482721E+00
    15    15     6    1.796728423023E+00 -1.796722411382E+00  2.298381512858E+00
    16    16     6   -1.797503288455E+00 -1.795476767860E+00  2.195835556662E+00
    17    17     6   -8.889371304890E-01 -2.704096964959E+00  1.351607710654E+00
    18    18     6   -9.078695758970E-01  9.079366265150E-01  1.343339735986E+00
    19    19     6   -2.704366846067E+00 -8.885532221390E-01  1.343353195379E+00
    20    20     6    9.075578805870E-01 -9.076076453010E-01  1.351596592977E+00
    21    21     6   -1.806649285072E+00  1.019598116100E-02  4.429320413300E-01
    22    22     6    1.806327623282E+00 -9.841961119000E-03  4.559569995230E-01
    23    23     6    9.826872019000E-03 -1.806343421991E+00  4.559470563570E-01
    24    24     6   -1.014665942700E-02  1.806698583937E+00  4.429407697400E-01
    25    25     6    8.882917894460E-01 -2.684772304492E+00 -4.556637693490E-01
    26    26     6    9.082025111920E-01  8.883154506780E-01 -4.425521759010E-01
    27    27     6    2.684791628000E+00 -8.882718251250E-01 -4.556534511430E-01
    28    28     6   -8.883022611470E-01 -9.081876772540E-01 -4.425625649000E-01
    29    29     6   -9.444831020000E-03 -3.583543731266E+00 -1.351294181341E+00
    30    30     6    9.426702251000E-03 -9.402265551000E-03 -1.342960207683E+00
    31    31     6    1.787043788145E+00 -1.787009067781E+00 -1.351310549435E+00
    32    32     6   -1.787057948609E+00 -1.805941869091E+00 -1.342982249214E+00
    33    33     6   -8.986224372600E-01 -2.694365615246E+00 -2.297822920187E+00
    34    34     6   -8.973738634750E-01  8.973999498530E-01 -2.195692715772E+00
    35    35     6   -2.693878763873E+00 -8.991189247810E-01 -2.195684751738E+00
    36    36     6    8.977969768840E-01 -8.977651046470E-01 -2.297804797009E+00
    37    37     6   -1.795354721344E+00 -1.155487925000E-03 -3.056352202223E+00
    38    38     6    1.795931938803E+00  5.490924860000E-04 -3.233445158888E+00
    39    39     6   -5.255920760000E-04 -1.795914051822E+00 -3.233388687195E+00
    40    40     6    1.169348517000E-03  1.795370065320E+00 -3.056411600450E+00
    41    41     6    9.564718310630E-01 -2.752898103235E+00 -4.048494639181E+00
    42    42     6    8.404985768300E-01  9.561173046640E-01 -4.050268564532E+00
    43    43     6    2.752893371656E+00 -9.564633519570E-01 -4.048583924257E+00
    44    44     6   -9.560761525650E-01 -8.404561286260E-01 -4.050178677427E+00
    45    45     6    3.134923388730E-01 -3.906548749918E+00 -4.877699223550E+00
    46    46     6   -3.138458547960E-01  3.139375030890E-01 -4.878907324274E+00
    47    47     6    2.111097908735E+00 -2.111267326694E+00 -4.878165331201E+00
    48    48     6   -2.111164617761E+00 -1.481629928326E+00 -4.879370330732E+00
    49    49     8   -3.378552951900E-02 -3.560586229840E+00 -6.166959360712E+00
    50    50     8    3.165034181300E-02 -3.032679265400E-02 -6.169025975594E+00
    51    51     8    1.766440425954E+00 -1.768256287447E+00 -6.168525149171E+00
    52    52     8   -1.768161293451E+00 -1.823181282078E+00 -6.170420924061E+00
    53    53     8   -8.623443244110E-01 -2.718005278833E+00  6.168893281471E+00
    54    54     8   -9.337327750720E-01  9.214663420350E-01  6.169939087075E+00
    55    55     8   -2.729724805314E+00 -8.759291399490E-01  6.170298917487E+00
    56    56     8    9.344863749760E-01 -9.217615722450E-01  6.168749943539E+00
    57    57    32    2.303981640003E-04 -3.593211336539E+00  7.628298788451E+00
    58    58    32   -1.010811869000E-03  1.015713210000E-03  7.630155787265E+00
    59    59    32    1.796728423023E+00 -1.796722411382E+00  7.629428830926E+00
    60    60    32   -1.797503288455E+00 -1.795476767860E+00  7.631079083483E+00
    61    61    32   -8.973738634750E-01  8.973999498530E-01 -7.629981503173E+00
    62    62    32   -8.986224372600E-01 -2.694365615246E+00 -7.630665775185E+00
    63    63    32    8.977969768840E-01 -8.977651046470E-01 -7.631087663338E+00
    64    64    32   -2.693878763873E+00 -8.991189247810E-01 -7.629827502679E+00

 SYMMETRY CHANGED DURING OLD RUN :  INFORMATION ON SPACE GROUP LOST 
 NUMBER OF SYMMETRY OPERATORS         :    1
 *******************************************************************************
 LATTICE PARAMETERS (ANGSTROMS AND DEGREES) - BOHR = 0.5291772083 ANGSTROM
 PRIMITIVE CELL
         A              B              C           ALPHA      BETA       GAMMA 
     5.08126933     5.08126933   500.00000000    90.000000  90.000000  90.000000
 *******************************************************************************
 ATOMS IN THE ASYMMETRIC UNIT   64 - ATOMS IN THE UNIT CELL:   64
     ATOM                 X/A                 Y/B             Z(ANGSTROM)
 *******************************************************************************
      1 T   6 C     4.998280912868E-01  1.623626368156E-01  4.878508295502E+00
      2 T   6 C     1.698621386028E-04 -1.623966364751E-01  4.879440908551E+00
      3 T   6 C    -4.998202559539E-01 -1.624074104513E-01  4.879415339730E+00
      4 T   6 C    -1.789842605065E-04  1.623468062714E-01  4.878594817660E+00
      5 T   6 C     2.500346834318E-01 -2.339243213196E-01  4.050550207294E+00
      6 T   6 C    -2.500344332601E-01  2.337335499434E-01  4.049089299788E+00
      7 T   6 C     2.499598584315E-01  2.337314485128E-01  4.049129110620E+00
      8 T   6 C    -2.499597700984E-01 -2.339210547641E-01  4.050484922351E+00
      9 T   6 C     2.499953624750E-01 -4.998967301933E-01  3.234161621607E+00
     10 T   6 C    -2.499997215722E-01 -3.579242387977E-04  3.056457277836E+00
     11 T   6 C    -2.499987544897E-01 -4.998947307460E-01  3.234129242080E+00
     12 T   6 C     2.499967036517E-01 -3.599228829669E-04  3.056491923409E+00
     13 T   6 C     4.999973473942E-01 -4.999385284299E-01  2.298403348820E+00
     14 T   6 C    -6.820680489841E-07 -2.820101696354E-04  2.195821482721E+00
     15 T   6 C    -8.365768160434E-07 -4.999372621201E-01  2.298381512858E+00
     16 T   6 C     4.999972246472E-01 -2.820095456443E-04  2.195835556662E+00
     17 T   6 C    -4.999952552953E-01  2.525966928013E-01  1.351607710654E+00
     18 T   6 C    -9.330728917345E-06 -2.526866410259E-01  1.343339735986E+00
     19 T   6 C     4.999888767334E-01 -2.526876738002E-01  1.343353195379E+00
     20 T   6 C     6.925231561372E-06  2.525974848160E-01  1.351596592977E+00
     21 T   6 C     2.499935017967E-01 -2.528312366035E-01  4.429320413300E-01
     22 T   6 C    -2.499980047541E-01  2.527372090733E-01  4.559569995230E-01
     23 T   6 C     2.500023030854E-01  2.527373078222E-01  4.559470563570E-01
     24 T   6 C    -2.500072257876E-01 -2.528312334211E-01  4.429407697400E-01
     25 T   6 C     2.499972884840E-01  4.972257297437E-01 -4.556637693490E-01
     26 T   6 C    -2.500024995644E-01  2.767472935430E-03 -4.425521759010E-01
     27 T   6 C    -2.500027557577E-01  4.972256405685E-01 -4.556534511430E-01
     28 T   6 C     2.499985998331E-01  2.767244100612E-03 -4.425625649000E-01
     29 T   6 C     4.999984083337E-01  4.973697328480E-01 -1.351294181341E+00
     30 T   6 C    -3.400598385750E-06  2.620229307264E-03 -1.342960207683E+00
     31 T   6 C    -4.831667687194E-06  4.973633253446E-01 -1.351310549435E+00
     32 T   6 C     4.999999746312E-01  2.627876493459E-03 -1.342982249214E+00
     33 T   6 C     4.999983373930E-01  2.498946810445E-01 -2.297822920187E+00
     34 T   6 C    -3.630166713051E-06 -2.497597847659E-01 -2.195692715772E+00
     35 T   6 C     4.999996783543E-01 -2.497578401186E-01 -2.195684751738E+00
     36 T   6 C    -4.435323824090E-06  2.498694797566E-01 -2.297804797009E+00
     37 T   6 C     2.500014207165E-01 -2.496798265264E-01 -3.056352202223E+00
     38 T   6 C    -2.499973603241E-01  2.498445374780E-01 -3.233445158888E+00
     39 T   6 C     2.499916008764E-01  2.498453186399E-01 -3.233388687195E+00
     40 T   6 C    -2.500054848089E-01 -2.496800329534E-01 -3.056411600450E+00
     41 T   6 C     2.499897400740E-01 -4.838060208325E-01 -4.048494639181E+00
     42 T   6 C    -2.500161260081E-01 -1.608944166908E-02 -4.050268564532E+00
     43 T   6 C    -2.499902615779E-01 -4.838078592245E-01 -4.048583924257E+00
     44 T   6 C     2.500044922336E-01 -1.608962203437E-02 -4.050178677427E+00
     45 T   6 C    -4.999921498685E-01 -4.127412901766E-01 -4.877699223550E+00
     46 T   6 C    -1.275372849985E-05 -8.736200360214E-02 -4.878907324274E+00
     47 T   6 C     2.357611452825E-05 -4.124178631465E-01 -4.878165331201E+00
     48 T   6 C     4.999714091410E-01 -8.760571798427E-02 -4.879370330732E+00
     49 T   8 O    -4.998091066854E-01  4.907877400948E-01 -6.166959360712E+00
     50 T   8 O    -1.841844084331E-04  8.624705603535E-03 -6.169025975594E+00
     51 T   8 O     2.526943352352E-04  4.918865451435E-01 -6.168525149171E+00
     52 T   8 O     4.997693536778E-01  7.656552828695E-03 -6.170420924061E+00
     53 T   8 O     4.982395774066E-01  2.582328074620E-01  6.168893281471E+00
     54 T   8 O     1.706990403145E-03 -2.581685384229E-01  6.169939087075E+00
     55 T   8 O    -4.982390835982E-01 -2.579732348128E-01  6.170298917487E+00
     56 T   8 O    -1.770776889925E-03  2.583144930728E-01  6.168749943539E+00
     57 T  32 GE    4.999973473942E-01 -4.999385284299E-01  7.628298788451E+00
     58 T  32 GE   -6.820680489841E-07 -2.820101696354E-04  7.630155787265E+00
     59 T  32 GE   -8.365768160434E-07 -4.999372621201E-01  7.629428830926E+00
     60 T  32 GE    4.999972246472E-01 -2.820095456443E-04  7.631079083483E+00
     61 T  32 GE   -3.630166713051E-06 -2.497597847659E-01 -7.629981503173E+00
     62 T  32 GE    4.999983373930E-01  2.498946810445E-01 -7.630665775185E+00
     63 T  32 GE   -4.435323824090E-06  2.498694797566E-01 -7.631087663338E+00
     64 T  32 GE    4.999996783543E-01 -2.497578401186E-01 -7.629827502679E+00

 T = ATOM BELONGING TO THE ASYMMETRIC UNIT
 *******************************************************************************
 * GEOMETRY EDITING - INPUT COORDINATES ARE GIVEN IN ANGSTROM         
 *******************************************************************************
 INFORMATION **** NEW DEFAULT **** FINALRUN 4 FOR GEOMETRY OPTIMIZATIONS
 INFORMATION **** NEW DEFAULT **** OPTGEOM OPTIMIZES BOTH ATOMIC COORDINATES AND CELL PARAMETERS
 INFORMATION **** NEW DEFAULT **** TOL. ON ATOMIC DISP TO REDEFINE REF. GEOMETRY: 0.8 Angs
 INFORMATION **** NEW DEFAULT **** N POINTS TO REDEFINE REF. GEOMETRY: N OF OPT DEGS OF FREEDOM
 INFORMATION **** NEW DEFAULT **** TOL. ON ENERGY TO REDEFINE REF. GEOMETRY: 10**-3*(5*N. ATOMS)
 INFORMATION **** ATOMONLY **** ONLY ATOMIC COORDINATES ARE OPTIMIZED

 IMPORTANT INFORMATION:
 THE COORDINATE SYSTEM ADOPTED IN THE OPTIMIZATION IS NOT IN
 GENERAL HOMOGENEOUS UNITS. FOR THIS REASON THE GRADIENT AND 
 HESSIAN MATRIX IN TERMS OF THIS SYSTEM ARE GIVEN WITHOUT
 UNITS. FOR MORE DETAILS SEE THE MANUAL.

 *******************************************************************************
 ATOMIC POSITIONS OPTIMIZATION CONTROL

 INITIAL TRUST RADIUS         0.50000 MAXIMUM TRUST RADIUS               4.00000
 MAXIMUM GRADIENT COMPONENT   0.00045 MAXIMUM DISPLACEMENT COMPONENT     0.00180
 R.M.S. OF GRADIENT COMPONENT 0.00030 R.M.S. OF DISPLACEMENT COMPONENTS  0.00120
 THRESHOLD ON ENERGY CHANGE 0.100E-06 EXTRAPOLATING POLYNOMIAL ORDER           2
 MAXIMUM ALLOWED NUMBER OF STEPS   -1 SORTING OF ENERGY POINTS:               NO
 ANALYTICAL  GRADIENT                 HESSIAN UPDATING                      BFGS
 STEP SIZE NUMERICAL GRADIENT 0.00100
 INITIAL HESSIAN MATRIX: SCHLEGEL MODEL 2
 *******************************************************************************


 GCALCO - MAX INDICES DIRECT LATTICE VECTOR    83    83     0
 NO.OF VECTORS CREATED 6999 STARS  686 RMAX   452.93522 BOHR

 GEOMETRY FOR WAVE FUNCTION - DIMENSIONALITY OF THE SYSTEM    2
 (NON PERIODIC DIRECTION: LATTICE PARAMETER FORMALLY SET TO 500)
 *******************************************************************************
 LATTICE PARAMETERS (ANGSTROMS AND DEGREES) - BOHR = 0.5291772083 ANGSTROM
 PRIMITIVE CELL
         A              B              C           ALPHA      BETA       GAMMA 
     5.08126933     5.08126933   500.00000000    90.000000  90.000000  90.000000
 *******************************************************************************
 ATOMS IN THE ASYMMETRIC UNIT   64 - ATOMS IN THE UNIT CELL:   64
     ATOM                 X/A                 Y/B             Z(ANGSTROM)
 *******************************************************************************
      1 T   6 C     4.998280912868E-01  1.623626368156E-01  4.878508295502E+00
      2 T   6 C     1.698621386029E-04 -1.623966364751E-01  4.879440908551E+00
      3 T   6 C    -4.998202559539E-01 -1.624074104513E-01  4.879415339730E+00
      4 T   6 C    -1.789842605066E-04  1.623468062714E-01  4.878594817660E+00
      5 T   6 C     2.500346834318E-01 -2.339243213196E-01  4.050550207294E+00
      6 T   6 C    -2.500344332601E-01  2.337335499434E-01  4.049089299788E+00
      7 T   6 C     2.499598584315E-01  2.337314485128E-01  4.049129110620E+00
      8 T   6 C    -2.499597700984E-01 -2.339210547641E-01  4.050484922351E+00
      9 T   6 C     2.499953624750E-01 -4.998967301933E-01  3.234161621607E+00
     10 T   6 C    -2.499997215722E-01 -3.579242387977E-04  3.056457277836E+00
     11 T   6 C    -2.499987544897E-01 -4.998947307460E-01  3.234129242080E+00
     12 T   6 C     2.499967036517E-01 -3.599228829669E-04  3.056491923409E+00
     13 T   6 C     4.999973473942E-01 -4.999385284299E-01  2.298403348820E+00
     14 T   6 C    -6.820680489841E-07 -2.820101696354E-04  2.195821482721E+00
     15 T   6 C    -8.365768160434E-07 -4.999372621201E-01  2.298381512858E+00
     16 T   6 C     4.999972246472E-01 -2.820095456443E-04  2.195835556662E+00
     17 T   6 C    -4.999952552953E-01  2.525966928013E-01  1.351607710654E+00
     18 T   6 C    -9.330728917345E-06 -2.526866410259E-01  1.343339735986E+00
     19 T   6 C     4.999888767334E-01 -2.526876738002E-01  1.343353195379E+00
     20 T   6 C     6.925231561372E-06  2.525974848160E-01  1.351596592977E+00
     21 T   6 C     2.499935017967E-01 -2.528312366035E-01  4.429320413300E-01
     22 T   6 C    -2.499980047541E-01  2.527372090733E-01  4.559569995230E-01
     23 T   6 C     2.500023030854E-01  2.527373078222E-01  4.559470563570E-01
     24 T   6 C    -2.500072257876E-01 -2.528312334211E-01  4.429407697400E-01
     25 T   6 C     2.499972884840E-01  4.972257297437E-01 -4.556637693490E-01
     26 T   6 C    -2.500024995644E-01  2.767472935430E-03 -4.425521759010E-01
     27 T   6 C    -2.500027557577E-01  4.972256405685E-01 -4.556534511430E-01
     28 T   6 C     2.499985998331E-01  2.767244100612E-03 -4.425625649000E-01
     29 T   6 C     4.999984083337E-01  4.973697328480E-01 -1.351294181341E+00
     30 T   6 C    -3.400598385750E-06  2.620229307264E-03 -1.342960207683E+00
     31 T   6 C    -4.831667687194E-06  4.973633253446E-01 -1.351310549435E+00
     32 T   6 C     4.999999746312E-01  2.627876493459E-03 -1.342982249214E+00
     33 T   6 C     4.999983373930E-01  2.498946810445E-01 -2.297822920187E+00
     34 T   6 C    -3.630166713051E-06 -2.497597847659E-01 -2.195692715772E+00
     35 T   6 C     4.999996783543E-01 -2.497578401186E-01 -2.195684751738E+00
     36 T   6 C    -4.435323824090E-06  2.498694797566E-01 -2.297804797009E+00
     37 T   6 C     2.500014207165E-01 -2.496798265264E-01 -3.056352202223E+00
     38 T   6 C    -2.499973603241E-01  2.498445374780E-01 -3.233445158888E+00
     39 T   6 C     2.499916008764E-01  2.498453186399E-01 -3.233388687195E+00
     40 T   6 C    -2.500054848089E-01 -2.496800329534E-01 -3.056411600450E+00
     41 T   6 C     2.499897400740E-01 -4.838060208325E-01 -4.048494639181E+00
     42 T   6 C    -2.500161260081E-01 -1.608944166908E-02 -4.050268564532E+00
     43 T   6 C    -2.499902615779E-01 -4.838078592245E-01 -4.048583924257E+00
     44 T   6 C     2.500044922336E-01 -1.608962203437E-02 -4.050178677427E+00
     45 T   6 C    -4.999921498685E-01 -4.127412901766E-01 -4.877699223550E+00
     46 T   6 C    -1.275372849985E-05 -8.736200360214E-02 -4.878907324274E+00
     47 T   6 C     2.357611452825E-05 -4.124178631465E-01 -4.878165331201E+00
     48 T   6 C     4.999714091410E-01 -8.760571798427E-02 -4.879370330732E+00
     49 T   8 O    -4.998091066854E-01  4.907877400948E-01 -6.166959360712E+00
     50 T   8 O    -1.841844084331E-04  8.624705603535E-03 -6.169025975594E+00
     51 T   8 O     2.526943352351E-04  4.918865451435E-01 -6.168525149171E+00
     52 T   8 O     4.997693536778E-01  7.656552828695E-03 -6.170420924061E+00
     53 T   8 O     4.982395774066E-01  2.582328074620E-01  6.168893281471E+00
     54 T   8 O     1.706990403145E-03 -2.581685384229E-01  6.169939087075E+00
     55 T   8 O    -4.982390835982E-01 -2.579732348128E-01  6.170298917487E+00
     56 T   8 O    -1.770776889925E-03  2.583144930728E-01  6.168749943539E+00
     57 T  32 GE    4.999973473942E-01 -4.999385284299E-01  7.628298788451E+00
     58 T  32 GE   -6.820680489841E-07 -2.820101696354E-04  7.630155787265E+00
     59 T  32 GE   -8.365768160434E-07 -4.999372621201E-01  7.629428830926E+00
     60 T  32 GE    4.999972246472E-01 -2.820095456443E-04  7.631079083483E+00
     61 T  32 GE   -3.630166713051E-06 -2.497597847659E-01 -7.629981503173E+00
     62 T  32 GE    4.999983373930E-01  2.498946810445E-01 -7.630665775185E+00
     63 T  32 GE   -4.435323824090E-06  2.498694797566E-01 -7.631087663338E+00
     64 T  32 GE    4.999996783543E-01 -2.497578401186E-01 -7.629827502679E+00

 T = ATOM BELONGING TO THE ASYMMETRIC UNIT

 ****    1 SYMMOPS - TRANSLATORS IN FRACTIONAL UNITS
 **** MATRICES AND TRANSLATORS IN THE CRYSTALLOGRAPHIC REFERENCE FRAME
   V INV                    ROTATION MATRICES                   TRANSLATORS
   1   1  1.00  0.00  0.00  0.00  1.00  0.00  0.00  0.00  1.00  0.00  0.00  0.00

 DIRECT LATTICE VECTORS CARTESIAN COMPONENTS (ANGSTROM)
          X                    Y                    Z
  -0.359300000000E+01  -0.359300000000E+01   0.000000000000E+00
   0.359300000000E+01  -0.359300000000E+01   0.000000000000E+00
   0.000000000000E+00   0.000000000000E+00   0.500000000000E+03


 CARTESIAN COORDINATES - PRIMITIVE CELL
 *******************************************************************************
 *      ATOM          X(ANGSTROM)         Y(ANGSTROM)         Z(ANGSTROM)
 *******************************************************************************
    1     6 C    -1.212513377915E+00 -2.379251286072E+00  4.878508295502E+00
    2     6 C    -5.841014295190E-01  5.828808001910E-01  4.879440908551E+00
    3     6 C    -2.380675646109E+00 -1.213615994606E+00  4.879415339730E+00
    4     6 C     5.839551653810E-01 -5.826689844850E-01  4.878594817660E+00
    5     6 C    -1.738864704072E+00 -5.788453106900E-02  4.050550207294E+00
    6     6 C     1.738178363650E+00  5.856907375700E-02  4.049089299788E+00
    7     6 C    -5.830867683800E-02 -1.737902865851E+00  4.049129110620E+00
    8     6 C     5.762710419600E-02  1.738583803731E+00  4.050484922351E+00
    9     6 C     8.986377110430E-01 -2.695104385788E+00  3.234161621607E+00
   10     6 C     8.969629778190E-01  8.995350213990E-01  3.056457277836E+00
   11     6 C     2.695123757311E+00 -8.986327075480E-01  3.234129242080E+00
   12     6 C    -8.995313591390E-01 -8.969449533020E-01  3.056491923409E+00
   13     6 C     2.303981640003E-04 -3.593211336539E+00  2.298403348820E+00
   14     6 C    -1.010811869000E-03  1.015713210000E-03  2.195821482721E+00
   15     6 C     1.796728423023E+00 -1.796722411382E+00  2.298381512858E+00
   16     6 C    -1.797503288455E+00 -1.795476767860E+00  2.195835556662E+00
   17     6 C    -8.889371304890E-01 -2.704096964959E+00  1.351607710654E+00
   18     6 C    -9.078695758970E-01  9.079366265150E-01  1.343339735986E+00
   19     6 C    -2.704366846067E+00 -8.885532221390E-01  1.343353195379E+00
   20     6 C     9.075578805870E-01 -9.076076453010E-01  1.351596592977E+00
   21     6 C    -1.806649285072E+00  1.019598116100E-02  4.429320413300E-01
   22     6 C     1.806327623282E+00 -9.841961119000E-03  4.559569995230E-01
   23     6 C     9.826872019000E-03 -1.806343421991E+00  4.559470563570E-01
   24     6 C    -1.014665942700E-02  1.806698583937E+00  4.429407697400E-01
   25     6 C     8.882917894460E-01 -2.684772304492E+00 -4.556637693490E-01
   26     6 C     9.082025111920E-01  8.883154506780E-01 -4.425521759010E-01
   27     6 C     2.684791628000E+00 -8.882718251250E-01 -4.556534511430E-01
   28     6 C    -8.883022611470E-01 -9.081876772540E-01 -4.425625649000E-01
   29     6 C    -9.444831020000E-03 -3.583543731266E+00 -1.351294181341E+00
   30     6 C     9.426702251000E-03 -9.402265551000E-03 -1.342960207683E+00
   31     6 C     1.787043788145E+00 -1.787009067781E+00 -1.351310549435E+00
   32     6 C    -1.787057948609E+00 -1.805941869091E+00 -1.342982249214E+00
   33     6 C    -8.986224372600E-01 -2.694365615246E+00 -2.297822920187E+00
   34     6 C    -8.973738634750E-01  8.973999498530E-01 -2.195692715772E+00
   35     6 C    -2.693878763873E+00 -8.991189247810E-01 -2.195684751738E+00
   36     6 C     8.977969768840E-01 -8.977651046470E-01 -2.297804797009E+00
   37     6 C    -1.795354721344E+00 -1.155487925000E-03 -3.056352202223E+00
   38     6 C     1.795931938803E+00  5.490924860001E-04 -3.233445158888E+00
   39     6 C    -5.255920759999E-04 -1.795914051822E+00 -3.233388687195E+00
   40     6 C     1.169348517000E-03  1.795370065320E+00 -3.056411600450E+00
   41     6 C     9.564718310630E-01 -2.752898103235E+00 -4.048494639181E+00
   42     6 C     8.404985768300E-01  9.561173046640E-01 -4.050268564532E+00
   43     6 C     2.752893371656E+00 -9.564633519570E-01 -4.048583924257E+00
   44     6 C    -9.560761525650E-01 -8.404561286260E-01 -4.050178677427E+00
   45     6 C     3.134923388730E-01 -3.906548749918E+00 -4.877699223550E+00
   46     6 C    -3.138458547960E-01  3.139375030890E-01 -4.878907324274E+00
   47     6 C     2.111097908735E+00 -2.111267326694E+00 -4.878165331201E+00
   48     6 C    -2.111164617761E+00 -1.481629928326E+00 -4.879370330732E+00
   49     8 O    -3.378552951900E-02 -3.560586229840E+00 -6.166959360712E+00
   50     8 O     3.165034181300E-02 -3.032679265400E-02 -6.169025975594E+00
   51     8 O     1.766440425954E+00 -1.768256287447E+00 -6.168525149171E+00
   52     8 O    -1.768161293451E+00 -1.823181282078E+00 -6.170420924061E+00
   53     8 O    -8.623443244110E-01 -2.718005278833E+00  6.168893281471E+00
   54     8 O    -9.337327750720E-01  9.214663420350E-01  6.169939087075E+00
   55     8 O    -2.729724805314E+00 -8.759291399490E-01  6.170298917487E+00
   56     8 O     9.344863749760E-01 -9.217615722450E-01  6.168749943539E+00
   57    32 GE    2.303981640003E-04 -3.593211336539E+00  7.628298788451E+00
   58    32 GE   -1.010811869000E-03  1.015713210000E-03  7.630155787265E+00
   59    32 GE    1.796728423023E+00 -1.796722411382E+00  7.629428830926E+00
   60    32 GE   -1.797503288455E+00 -1.795476767860E+00  7.631079083483E+00
   61    32 GE   -8.973738634750E-01  8.973999498530E-01 -7.629981503173E+00
   62    32 GE   -8.986224372600E-01 -2.694365615246E+00 -7.630665775185E+00
   63    32 GE    8.977969768840E-01 -8.977651046470E-01 -7.631087663338E+00
   64    32 GE   -2.693878763873E+00 -8.991189247810E-01 -7.629827502679E+00

 *******************************************************************************
 LOCAL ATOMIC FUNCTIONS BASIS SET
 *******************************************************************************
   ATOM   X(AU)   Y(AU)   Z(AU)  N. TYPE  EXPONENT  S COEF   P COEF   D/F/G COEF
 *******************************************************************************
   1 C   -2.291  -4.496   9.219
                                  1 S  
                                         3.048E+03 1.826E-03 0.000E+00 0.000E+00
                                         4.564E+02 1.406E-02 0.000E+00 0.000E+00
                                         1.037E+02 6.876E-02 0.000E+00 0.000E+00
                                         2.923E+01 2.304E-01 0.000E+00 0.000E+00
                                         9.349E+00 4.685E-01 0.000E+00 0.000E+00
                                         3.189E+00 3.628E-01 0.000E+00 0.000E+00
                           2-     5 SP 
                                         3.665E+00-3.959E-01 2.365E-01 0.000E+00
                                         7.705E-01 1.216E+00 8.606E-01 0.000E+00
                           6-     9 SP 
                                         1.959E-01 1.000E+00 1.000E+00 0.000E+00
   2 C   -1.104   1.101   9.221
   3 C   -4.499  -2.293   9.221
   4 C    1.104  -1.101   9.219
   5 C   -3.286  -0.109   7.654
   6 C    3.285   0.111   7.652
   7 C   -0.110  -3.284   7.652
   8 C    0.109   3.285   7.654
   9 C    1.698  -5.093   6.112
  10 C    1.695   1.700   5.776
  11 C    5.093  -1.698   6.112
  12 C   -1.700  -1.695   5.776
  13 C    0.000  -6.790   4.343
  14 C   -0.002   0.002   4.150
  15 C    3.395  -3.395   4.343
  16 C   -3.397  -3.393   4.150
  17 C   -1.680  -5.110   2.554
  18 C   -1.716   1.716   2.539
  19 C   -5.111  -1.679   2.539
  20 C    1.715  -1.715   2.554
  21 C   -3.414   0.019   0.837
  22 C    3.413  -0.019   0.862
  23 C    0.019  -3.413   0.862
  24 C   -0.019   3.414   0.837
  25 C    1.679  -5.073  -0.861
  26 C    1.716   1.679  -0.836
  27 C    5.074  -1.679  -0.861
  28 C   -1.679  -1.716  -0.836
  29 C   -0.018  -6.772  -2.554
  30 C    0.018  -0.018  -2.538
  31 C    3.377  -3.377  -2.554
  32 C   -3.377  -3.413  -2.538
  33 C   -1.698  -5.092  -4.342
  34 C   -1.696   1.696  -4.149
  35 C   -5.091  -1.699  -4.149
  36 C    1.697  -1.697  -4.342
  37 C   -3.393  -0.002  -5.776
  38 C    3.394   0.001  -6.110
  39 C   -0.001  -3.394  -6.110
  40 C    0.002   3.393  -5.776
  41 C    1.807  -5.202  -7.651
  42 C    1.588   1.807  -7.654
  43 C    5.202  -1.807  -7.651
  44 C   -1.807  -1.588  -7.654
  45 C    0.592  -7.382  -9.218
  46 C   -0.593   0.593  -9.220
  47 C    3.989  -3.990  -9.218
  48 C   -3.990  -2.800  -9.221
  49 O   -0.064  -6.729 -11.654
                                433 S  
                                         2.703E+04 2.173E-04 0.000E+00 0.000E+00
                                         4.052E+03 1.684E-03 0.000E+00 0.000E+00
                                         9.223E+02 8.740E-03 0.000E+00 0.000E+00
                                         2.612E+02 3.524E-02 0.000E+00 0.000E+00
                                         8.535E+01 1.115E-01 0.000E+00 0.000E+00
                                         3.104E+01 2.559E-01 0.000E+00 0.000E+00
                                434 S  
                                         1.226E+01 3.977E-01 0.000E+00 0.000E+00
                                         4.999E+00 2.463E-01 0.000E+00 0.000E+00
                                435 S  
                                         1.099E+00 1.000E+00 0.000E+00 0.000E+00
                                436 S  
                                         3.566E-01 1.000E+00 0.000E+00 0.000E+00
                         437-   439 P  
                                         6.327E+01 0.000E+00 6.069E-03 0.000E+00
                                         1.463E+01 0.000E+00 4.191E-02 0.000E+00
                                         4.450E+00 0.000E+00 1.615E-01 0.000E+00
                                         1.528E+00 0.000E+00 3.571E-01 0.000E+00
                         440-   442 P  
                                         5.490E-01 0.000E+00 1.000E+00 0.000E+00
                         443-   445 P  
                                         1.859E-01 0.000E+00 1.000E+00 0.000E+00
                         446-   450 D  
                                         4.535E-01 0.000E+00 0.000E+00 1.000E+00
  50 O    0.060  -0.057 -11.658
  51 O    3.338  -3.342 -11.657
  52 O   -3.341  -3.445 -11.660
  53 O   -1.630  -5.136  11.658
  54 O   -1.764   1.741  11.659
  55 O   -5.158  -1.655  11.660
  56 O    1.766  -1.742  11.657
  57 GE   0.000  -6.790  14.415
                                577 S  
                                         4.661E+05 2.249E-04 0.000E+00 0.000E+00
                                         6.988E+04 1.744E-03 0.000E+00 0.000E+00
                                         1.590E+04 9.069E-03 0.000E+00 0.000E+00
                                         4.502E+03 3.691E-02 0.000E+00 0.000E+00
                                         1.466E+03 1.205E-01 0.000E+00 0.000E+00
                                         5.271E+02 2.875E-01 0.000E+00 0.000E+00
                                         2.050E+02 4.162E-01 0.000E+00 0.000E+00
                                         8.125E+01 2.240E-01 0.000E+00 0.000E+00
                                578 S  
                                         5.057E+02-2.518E-02 0.000E+00 0.000E+00
                                         1.570E+02-1.190E-01 0.000E+00 0.000E+00
                                         2.576E+01 5.493E-01 0.000E+00 0.000E+00
                                         1.111E+01 5.294E-01 0.000E+00 0.000E+00
                                579 S  
                                         1.727E+01-2.285E-01 0.000E+00 0.000E+00
                                         2.944E+00 6.838E-01 0.000E+00 0.000E+00
                                580 S  
                                         1.479E+00 1.000E+00 0.000E+00 0.000E+00
                                581 S  
                                         4.368E-01 1.000E+00 0.000E+00 0.000E+00
                                582 S  
                                         1.684E-01 1.000E+00 0.000E+00 0.000E+00
                         583-   585 P  
                                         2.634E+03 0.000E+00 2.214E-03 0.000E+00
                                         6.240E+02 0.000E+00 1.814E-02 0.000E+00
                                         2.006E+02 0.000E+00 8.663E-02 0.000E+00
                                         7.510E+01 0.000E+00 2.565E-01 0.000E+00
                                         3.021E+01 0.000E+00 4.266E-01 0.000E+00
                                         1.244E+01 0.000E+00 2.620E-01 0.000E+00
                         586-   588 P  
                                         4.598E+01 0.000E+00-2.032E-02 0.000E+00
                                         6.995E+00 0.000E+00 3.201E-01 0.000E+00
                                         2.969E+00 0.000E+00 5.905E-01 0.000E+00
                         589-   591 P  
                                         1.204E+00 0.000E+00 1.000E+00 0.000E+00
                         592-   594 P  
                                         4.238E-01 0.000E+00 1.000E+00 0.000E+00
                         595-   597 P  
                                         1.519E-01 0.000E+00 1.000E+00 0.000E+00
                         598-   602 D  
                                         1.194E+02 0.000E+00 0.000E+00 1.059E-02
                                         3.506E+01 0.000E+00 0.000E+00 6.960E-02
                                         1.264E+01 0.000E+00 0.000E+00 2.281E-01
                                         4.889E+00 0.000E+00 0.000E+00 4.030E-01
                                         1.845E+00 0.000E+00 0.000E+00 4.130E-01
                         603-   607 D  
                                         1.553E+00 0.000E+00 0.000E+00 1.000E+00
                         608-   612 D  
                                         6.402E-01 0.000E+00 0.000E+00 1.000E+00
                         613-   617 D  
                                         2.806E-01 0.000E+00 0.000E+00 1.000E+00
  58 GE  -0.002   0.002  14.419
  59 GE   3.395  -3.395  14.418
  60 GE  -3.397  -3.393  14.421
  61 GE  -1.696   1.696 -14.419
  62 GE  -1.698  -5.092 -14.420
  63 GE   1.697  -1.697 -14.421
  64 GE  -5.091  -1.699 -14.418
 INFORMATION **** SET_MPP **** PCRYSTAL CALCULATION
 INFORMATION **** READM2 **** NEW DEFAULT: FOCK/KS MATRIX MIXING SET TO 30 %
 INFORMATION **** READM2 **** NEW DEFAULT: FULL DIRECT SCF MODE
 INFORMATION **** READM2 **** NEW DEFAULT: COULOMB BIPOLAR BUFFER SET TO 32 Mb
 INFORMATION **** READM2 **** NEW DEFAULT: EXCHANGE BIPOLAR BUFFER SET TO 32 Mb

 *******************************************************************************
 NEW DEFAULT: DFT INTEGRATION GRID INCREASED TO XLGRID
 NEW DEFAULT: DIIS ACCELERATOR ACTIVE
 USE KEYWORD NODIIS TO TURN IT OFF
 *******************************************************************************

 INFORMATION **** TOLINTEG **** COULOMB AND EXCHANGE SERIES TOLERANCES MODIFIED
 INFORMATION **** TOLDEE **** SCF TOL ON TOTAL ENERGY SET TO           8
 INFORMATION **** MAXCYCLE **** MAX NUMBER OF SCF CYCLES SET TO         100
 INFORMATION **** BIPOSIZE **** COULOMB BIPOLAR BUFFER SET TO    10000000
 *******************************************************************************
 N. OF ATOMS PER CELL        64  COULOMB OVERLAP TOL         (T1) 10**   -7
 NUMBER OF SHELLS           328  COULOMB PENETRATION TOL     (T2) 10**   -7
 NUMBER OF AO               904  EXCHANGE OVERLAP TOL        (T3) 10**   -7
 N. OF ELECTRONS PER CELL   608  EXCHANGE PSEUDO OVP (F(G))  (T4) 10**   -8
 CORE ELECTRONS PER CELL    336  EXCHANGE PSEUDO OVP (P(G))  (T5) 10**  -18
 N. OF SYMMETRY OPERATORS     1  POLE ORDER IN MONO ZONE                  4
 *******************************************************************************
 TYPE OF CALCULATION :  RESTRICTED CLOSED SHELL
 KOHN-SHAM HAMILTONIAN

 (EXCHANGE)[CORRELATION] FUNCTIONAL:(BECKE 88)[LEE-YANG-PARR]

 NON-LOCAL WEIGHTING FACTOR (EXCHANGE) =           0.9000
 NON-LOCAL WEIGHTING FACTOR [CORRELATION] =        0.8100

 HYBRID EXCHANGE - PERCENTAGE OF FOCK EXCHANGE    20.0000

 CAPPA:IS1  8;IS2  8;IS3  1; K PTS MONK NET  34; SYMMOPS:K SPACE   2;G SPACE   1

 *******************************************************************************
 MAX NUMBER OF SCF CYCLES     100  CONVERGENCE ON DELTAP        10**-18
 WEIGHT OF F(I) IN F(I+1)      35% CONVERGENCE ON ENERGY        10**- 8
 SHRINK. FACT.(MONKH.)    8  8  1  NUMBER OF K POINTS IN THE IBZ     34
 SHRINKING FACTOR(GILAT NET)    8  NUMBER OF K POINTS(GILAT NET)     34
 *******************************************************************************
 *** K POINTS COORDINATES (OBLIQUE COORDINATES IN UNITS OF IS =  8)
   1-R(  0  0  0)   2-C(  1  0  0)   3-C(  2  0  0)   4-C(  3  0  0)
   5-R(  4  0  0)   6-C(  0  1  0)   7-C(  1  1  0)   8-C(  2  1  0)
   9-C(  3  1  0)  10-C(  4  1  0)  11-C(  5  1  0)  12-C(  6  1  0)
  13-C(  7  1  0)  14-C(  0  2  0)  15-C(  1  2  0)  16-C(  2  2  0)
  17-C(  3  2  0)  18-C(  4  2  0)  19-C(  5  2  0)  20-C(  6  2  0)
  21-C(  7  2  0)  22-C(  0  3  0)  23-C(  1  3  0)  24-C(  2  3  0)
  25-C(  3  3  0)  26-C(  4  3  0)  27-C(  5  3  0)  28-C(  6  3  0)
  29-C(  7  3  0)  30-R(  0  4  0)  31-C(  1  4  0)  32-C(  2  4  0)
  33-C(  3  4  0)  34-R(  4  4  0)

 DIRECT LATTICE VECTORS COMPON. (A.U.)     RECIP. LATTICE VECTORS COMPON. (A.U.) 
        X            Y            Z              X            Y            Z
   -6.7897860   -6.7897860    0.0000000     -0.4626939   -0.4626939    0.0000000
    6.7897860   -6.7897860    0.0000000      0.4626939   -0.4626939    0.0000000
    0.0000000    0.0000000  944.8630670      0.0000000    0.0000000    0.0066498

 DISK SPACE FOR EIGENVECTORS (FTN 10)    52301824 REALS

 SYMMETRY ADAPTION OF THE BLOCH FUNCTIONS ENABLED
 TTTTTTTTTTTTTTTTTTTTTTTTTTTTTT gordsh1     TELAPSE       11.92 TCPU        0.13

 MATRIX SIZE: P(G) 2649634, F(G)  431405, P(G) IRR 1335909, F(G) IRR  435581
 MAX G-VECTOR INDEX FOR 1- AND 2-ELECTRON INTEGRALS  37

 TTTTTTTTTTTTTTTTTTTTTTTTTTTTTT INPUT       TELAPSE       11.96 TCPU        0.17

 NEIGHBORS OF THE NON-EQUIVALENT ATOMS

 N = NUMBER OF NEIGHBORS AT DISTANCE R
    ATOM  N     R/ANG      R/AU   NEIGHBORS (ATOM LABELS AND CELL INDICES)
   1 C    1     1.3793     2.6065   53 O    0 0 0
   1 C    1     1.5593     2.9466    7 C    0 0 0
   1 C    1     1.5604     2.9488    6 C    1 0 0
   1 C    1     1.6502     3.1185    3 C    0 0 0
   1 C    1     2.3696     4.4779   12 C    0 0 0
   1 C    1     2.3705     4.4797   10 C    1 0 0

   2 C    1     1.3792     2.6064   54 O    0 0 0
   2 C    1     1.5592     2.9465    5 C    0 0 0
   2 C    1     1.5603     2.9486    8 C    0 0 0
   2 C    1     1.6501     3.1183    4 C    0 0 0
   2 C    1     2.3691     4.4769   12 C    0 0 0
   2 C    1     2.3700     4.4787   10 C    0 0 0

   3 C    1     1.3792     2.6063   55 O    0 0 0
   3 C    1     1.5592     2.9464    8 C    1 0 0
   3 C    1     1.5603     2.9486    5 C    0 0 0
   3 C    1     1.6502     3.1185    1 C    0 0 0
   3 C    1     2.3691     4.4769   10 C    1 0 0
   3 C    1     2.3700     4.4787   12 C    0 0 0

   4 C    1     1.3793     2.6064   56 O    0 0 0
   4 C    1     1.5593     2.9467    6 C    0 0 0
   4 C    1     1.5605     2.9489    7 C    0 0 0
   4 C    1     1.6501     3.1183    2 C    0 0 0
   4 C    1     2.3696     4.4779   10 C    0 0 0
   4 C    1     2.3706     4.4797   12 C    0 0 0

   5 C    1     1.5481     2.9255   12 C    0 0 0
   5 C    1     1.5592     2.9465    2 C    0 0 0
   5 C    1     1.5603     2.9486    3 C    0 0 0
   5 C    1     1.5789     2.9837    9 C    0-1 0
   5 C    1     2.3763     4.4905    7 C    0 0 0
   5 C    1     2.4697     4.6670   54 O    0 0 0

   6 C    1     1.5493     2.9277   10 C    0 0 0
   6 C    1     1.5593     2.9467    4 C    0 0 0
   6 C    1     1.5604     2.9488    1 C   -1 0 0
   6 C    1     1.5799     2.9856   11 C    0 0 0
   6 C    1     2.3763     4.4905    8 C    0 0 0
   6 C    1     2.4698     4.6673   56 O    0 0 0

   7 C    1     1.5493     2.9277   12 C    0 0 0
   7 C    1     1.5593     2.9466    1 C    0 0 0
   7 C    1     1.5605     2.9489    4 C    0 0 0
   7 C    1     1.5799     2.9856    9 C    0 0 0
   7 C    1     2.3763     4.4905    5 C    0 0 0
   7 C    1     2.4699     4.6675   53 O    0 0 0

   8 C    1     1.5481     2.9255   10 C    0 0 0
   8 C    1     1.5592     2.9464    3 C   -1 0 0
   8 C    1     1.5603     2.9486    2 C    0 0 0
   8 C    1     1.5789     2.9837   11 C    0-1 0
   8 C    1     2.3763     4.4905    6 C    0 0 0
   8 C    1     2.4698     4.6673   55 O   -1 0 0

   9 C    1     1.5778     2.9815   15 C    0 0 0
   9 C    1     1.5778     2.9816   13 C    0 0 0
   9 C    1     1.5789     2.9837    5 C    0 1 0
   9 C    1     1.5799     2.9856    7 C    0 0 0
   9 C    1     2.5406     4.8010   11 C    0 0 0
   9 C    1     2.5407     4.8012   11 C    1 0 0

  10 C    1     1.5344     2.8996   14 C    0 0 0
  10 C    1     1.5344     2.8996   16 C   -1 0 0
  10 C    1     1.5481     2.9255    8 C    0 0 0
  10 C    1     1.5493     2.9277    6 C    0 0 0
  10 C    1     2.3691     4.4769    3 C   -1 0 0
  10 C    1     2.3696     4.4779    4 C    0 0 0

  11 C    1     1.5778     2.9815   15 C    0 0 0
  11 C    1     1.5778     2.9815   13 C   -1 0 0
  11 C    1     1.5789     2.9837    8 C    0 1 0
  11 C    1     1.5799     2.9856    6 C    0 0 0
  11 C    1     2.5406     4.8010    9 C    0 0 0
  11 C    1     2.5407     4.8012    9 C   -1 0 0

  12 C    1     1.5344     2.8996   14 C    0 0 0
  12 C    1     1.5344     2.8996   16 C    0 0 0
  12 C    1     1.5481     2.9255    5 C    0 0 0
  12 C    1     1.5493     2.9277    7 C    0 0 0
  12 C    1     2.3691     4.4769    2 C    0 0 0
  12 C    1     2.3696     4.4779    1 C    0 0 0

  13 C    1     1.5740     2.9745   17 C    0 0 0
  13 C    1     1.5778     2.9815   11 C    1 0 0
  13 C    1     1.5778     2.9816    9 C    0 0 0
  13 C    1     1.5781     2.9823   19 C    0 1 0
  13 C    1     2.5406     4.8011   15 C    0 0 0
  13 C    1     2.5406     4.8011   15 C    1 0 0

  14 C    1     1.5344     2.8996   10 C    0 0 0
  14 C    1     1.5344     2.8996   12 C    0 0 0
  14 C    1     1.5375     2.9054   20 C    0 0 0
  14 C    1     1.5400     2.9102   18 C    0 0 0
  14 C    1     2.5087     4.7408   22 C    0 0 0
  14 C    1     2.5088     4.7409   23 C    0 0 0

  15 C    1     1.5740     2.9745   20 C    0 0 0
  15 C    1     1.5778     2.9815   11 C    0 0 0
  15 C    1     1.5778     2.9815    9 C    0 0 0
  15 C    1     1.5781     2.9822   18 C    0 1 0
  15 C    1     2.5406     4.8011   13 C    0 0 0
  15 C    1     2.5406     4.8011   13 C   -1 0 0

  16 C    1     1.5344     2.8996   10 C    1 0 0
  16 C    1     1.5344     2.8996   12 C    0 0 0
  16 C    1     1.5375     2.9054   17 C    0 0 0
  16 C    1     1.5400     2.9102   19 C    0 0 0
  16 C    1     2.5087     4.7408   23 C    0 0 0
  16 C    1     2.5088     4.7409   22 C    1 0 0

  17 C    1     1.5375     2.9054   16 C    0 0 0
  17 C    1     1.5543     2.9372   22 C    1 0 0
  17 C    1     1.5543     2.9373   23 C    0 0 0
  17 C    1     1.5740     2.9745   13 C    0 0 0
  17 C    1     2.4844     4.6948   10 C    1 0 0
  17 C    1     2.4845     4.6949   12 C    0 0 0

  18 C    1     1.5400     2.9102   14 C    0 0 0
  18 C    1     1.5570     2.9424   24 C    0 0 0
  18 C    1     1.5571     2.9424   21 C    0 0 0
  18 C    1     1.5781     2.9822   15 C    0-1 0
  18 C    1     2.4884     4.7024   10 C    0 0 0
  18 C    1     2.4885     4.7026   12 C    0 0 0

  19 C    1     1.5400     2.9102   16 C    0 0 0
  19 C    1     1.5571     2.9424   21 C    0 0 0
  19 C    1     1.5571     2.9425   24 C    1 0 0
  19 C    1     1.5781     2.9823   13 C    0-1 0
  19 C    1     2.4884     4.7025   12 C    0 0 0
  19 C    1     2.4885     4.7025   10 C    1 0 0

  20 C    1     1.5375     2.9054   14 C    0 0 0
  20 C    1     1.5543     2.9372   23 C    0 0 0
  20 C    1     1.5543     2.9373   22 C    0 0 0
  20 C    1     1.5740     2.9745   15 C    0 0 0
  20 C    1     2.4844     4.6949   12 C    0 0 0
  20 C    1     2.4844     4.6949   10 C    0 0 0

  21 C    1     1.5558     2.9400   25 C    0-1 0
  21 C    1     1.5571     2.9424   19 C    0 0 0
  21 C    1     1.5571     2.9424   18 C    0 0 0
  21 C    1     1.5719     2.9705   28 C    0 0 0
  21 C    1     2.5124     4.7477   23 C    0-1 0
  21 C    1     2.5166     4.7556   14 C    0 0 0

  22 C    1     1.5409     2.9119   27 C    0 0 0
  22 C    1     1.5543     2.9372   17 C   -1 0 0
  22 C    1     1.5543     2.9373   20 C    0 0 0
  22 C    1     1.5558     2.9401   26 C    0 0 0
  22 C    1     2.5087     4.7408   14 C    0 0 0
  22 C    1     2.5088     4.7409   16 C   -1 0 0

  23 C    1     1.5409     2.9119   25 C    0 0 0
  23 C    1     1.5543     2.9372   20 C    0 0 0
  23 C    1     1.5543     2.9373   17 C    0 0 0
  23 C    1     1.5558     2.9401   28 C    0 0 0
  23 C    1     2.5087     4.7408   16 C    0 0 0
  23 C    1     2.5088     4.7409   14 C    0 0 0

  24 C    1     1.5558     2.9400   27 C    0-1 0
  24 C    1     1.5570     2.9424   18 C    0 0 0
  24 C    1     1.5571     2.9425   19 C   -1 0 0
  24 C    1     1.5719     2.9705   26 C    0 0 0
  24 C    1     2.5124     4.7477   22 C    0-1 0
  24 C    1     2.5166     4.7556   16 C   -1 0 0

  25 C    1     1.5409     2.9119   23 C    0 0 0
  25 C    1     1.5543     2.9372   29 C    0 0 0
  25 C    1     1.5543     2.9372   31 C    0 0 0
  25 C    1     1.5558     2.9400   21 C    0 1 0
  25 C    1     2.5088     4.7410   34 C    0 1 0
  25 C    1     2.5088     4.7410   35 C    0 1 0

  26 C    1     1.5558     2.9401   22 C    0 0 0
  26 C    1     1.5571     2.9424   30 C    0 0 0
  26 C    1     1.5571     2.9424   32 C   -1 0 0
  26 C    1     1.5719     2.9705   24 C    0 0 0
  26 C    1     2.5125     4.7480   27 C    0 0 0
  26 C    1     2.5167     4.7558   35 C   -1 0 0

  27 C    1     1.5409     2.9119   22 C    0 0 0
  27 C    1     1.5543     2.9372   29 C   -1 0 0
  27 C    1     1.5543     2.9372   31 C    0 0 0
  27 C    1     1.5558     2.9400   24 C    0 1 0
  27 C    1     2.5088     4.7410   35 C   -1 1 0
  27 C    1     2.5088     4.7410   34 C    0 1 0

  28 C    1     1.5558     2.9401   23 C    0 0 0
  28 C    1     1.5571     2.9424   30 C    0 0 0
  28 C    1     1.5571     2.9424   32 C    0 0 0
  28 C    1     1.5719     2.9705   21 C    0 0 0
  28 C    1     2.5125     4.7480   25 C    0 0 0
  28 C    1     2.5167     4.7558   35 C    0 0 0

  29 C    1     1.5375     2.9055   35 C    0 1 0
  29 C    1     1.5543     2.9372   27 C    1 0 0
  29 C    1     1.5543     2.9372   25 C    0 0 0
  29 C    1     1.5739     2.9743   33 C    0 0 0
  29 C    1     2.4845     4.6951   37 C    0 1 0
  29 C    1     2.4846     4.6952   40 C    1 1 0

  30 C    1     1.5400     2.9103   34 C    0 0 0
  30 C    1     1.5571     2.9424   26 C    0 0 0
  30 C    1     1.5571     2.9424   28 C    0 0 0
  30 C    1     1.5780     2.9820   36 C    0 0 0
  30 C    1     2.4886     4.7027   37 C    0 0 0
  30 C    1     2.4886     4.7028   40 C    0 0 0

  31 C    1     1.5375     2.9055   34 C    0 1 0
  31 C    1     1.5543     2.9372   27 C    0 0 0
  31 C    1     1.5543     2.9372   25 C    0 0 0
  31 C    1     1.5740     2.9744   36 C    0 0 0
  31 C    1     2.4846     4.6951   37 C    0 1 0
  31 C    1     2.4846     4.6952   40 C    0 1 0

  32 C    1     1.5400     2.9103   35 C    0 0 0
  32 C    1     1.5571     2.9424   26 C    1 0 0
  32 C    1     1.5571     2.9424   28 C    0 0 0
  32 C    1     1.5781     2.9821   33 C    0 0 0
  32 C    1     2.4886     4.7027   37 C    0 0 0
  32 C    1     2.4886     4.7028   40 C    1 0 0

  33 C    1     1.5739     2.9743   29 C    0 0 0
  33 C    1     1.5777     2.9814   39 C    0 0 0
  33 C    1     1.5777     2.9814   38 C    1 0 0
  33 C    1     1.5781     2.9821   32 C    0 0 0
  33 C    1     2.5406     4.8011   36 C    1 0 0
  33 C    1     2.5406     4.8011   36 C    0 0 0

  34 C    1     1.5344     2.8997   37 C    0 0 0
  34 C    1     1.5345     2.8997   40 C    0 0 0
  34 C    1     1.5375     2.9055   31 C    0-1 0
  34 C    1     1.5400     2.9103   30 C    0 0 0
  34 C    1     2.5088     4.7410   25 C    0-1 0
  34 C    1     2.5088     4.7410   27 C    0-1 0

  35 C    1     1.5344     2.8996   37 C    0 0 0
  35 C    1     1.5344     2.8997   40 C    1 0 0
  35 C    1     1.5375     2.9055   29 C    0-1 0
  35 C    1     1.5400     2.9103   32 C    0 0 0
  35 C    1     2.5088     4.7410   27 C    1-1 0
  35 C    1     2.5088     4.7410   25 C    0-1 0

  36 C    1     1.5740     2.9744   31 C    0 0 0
  36 C    1     1.5776     2.9813   39 C    0 0 0
  36 C    1     1.5777     2.9814   38 C    0 0 0
  36 C    1     1.5780     2.9820   30 C    0 0 0
  36 C    1     2.5406     4.8011   33 C   -1 0 0
  36 C    1     2.5406     4.8011   33 C    0 0 0

  37 C    1     1.5344     2.8996   35 C    0 0 0
  37 C    1     1.5344     2.8997   34 C    0 0 0
  37 C    1     1.5481     2.9254   44 C    0 0 0
  37 C    1     1.5491     2.9273   41 C    0-1 0
  37 C    1     2.3696     4.4779   48 C    0 0 0
  37 C    1     2.3698     4.4782   46 C    0 0 0

  38 C    1     1.5777     2.9814   36 C    0 0 0
  38 C    1     1.5777     2.9814   33 C   -1 0 0
  38 C    1     1.5790     2.9838   42 C    0 0 0
  38 C    1     1.5799     2.9856   43 C    0 0 0
  38 C    1     2.5406     4.8010   39 C    0 0 0
  38 C    1     2.5407     4.8012   39 C   -1 0 0

  39 C    1     1.5776     2.9813   36 C    0 0 0
  39 C    1     1.5777     2.9814   33 C    0 0 0
  39 C    1     1.5790     2.9838   44 C    0 0 0
  39 C    1     1.5799     2.9856   41 C    0 0 0
  39 C    1     2.5406     4.8010   38 C    0 0 0
  39 C    1     2.5407     4.8012   38 C    1 0 0

  40 C    1     1.5344     2.8997   35 C   -1 0 0
  40 C    1     1.5345     2.8997   34 C    0 0 0
  40 C    1     1.5481     2.9255   42 C    0 0 0
  40 C    1     1.5491     2.9274   43 C    0-1 0
  40 C    1     2.3697     4.4780   46 C    0 0 0
  40 C    1     2.3697     4.4781   48 C   -1 0 0

  41 C    1     1.5491     2.9273   37 C    0 1 0
  41 C    1     1.5595     2.9470   45 C    0 0 0
  41 C    1     1.5599     2.9477   47 C    0 0 0
  41 C    1     1.5799     2.9856   39 C    0 0 0
  41 C    1     2.3766     4.4911   44 C    0 1 0
  41 C    1     2.4739     4.6750   51 O    0 0 0

  42 C    1     1.5481     2.9255   40 C    0 0 0
  42 C    1     1.5593     2.9467   46 C    0 0 0
  42 C    1     1.5599     2.9478   48 C   -1 0 0
  42 C    1     1.5790     2.9838   38 C    0 0 0
  42 C    1     2.3766     4.4911   43 C    0-1 0
  42 C    1     2.4731     4.6736   50 O    0 0 0

  43 C    1     1.5491     2.9274   40 C    0 1 0
  43 C    1     1.5593     2.9467   45 C   -1 0 0
  43 C    1     1.5600     2.9480   47 C    0 0 0
  43 C    1     1.5799     2.9856   38 C    0 0 0
  43 C    1     2.3766     4.4911   42 C    0 1 0
  43 C    1     2.4730     4.6732   49 O   -1 0 0

  44 C    1     1.5481     2.9254   37 C    0 0 0
  44 C    1     1.5594     2.9469   46 C    0 0 0
  44 C    1     1.5598     2.9475   48 C    0 0 0
  44 C    1     1.5790     2.9838   39 C    0 0 0
  44 C    1     2.3766     4.4911   41 C    0-1 0
  44 C    1     2.4740     4.6752   52 O    0 0 0

  45 C    1     1.3793     2.6065   49 O    0 0 0
  45 C    1     1.5593     2.9467   43 C    1 0 0
  45 C    1     1.5595     2.9470   41 C    0 0 0
  45 C    1     1.6521     3.1220   48 C    0 1 0
  45 C    1     2.3700     4.4787   40 C    1 1 0
  45 C    1     2.3701     4.4789   37 C    0 1 0

  46 C    1     1.3792     2.6064   50 O    0 0 0
  46 C    1     1.5593     2.9467   42 C    0 0 0
  46 C    1     1.5594     2.9469   44 C    0 0 0
  46 C    1     1.6517     3.1213   47 C    0-1 0
  46 C    1     2.3697     4.4780   40 C    0 0 0
  46 C    1     2.3698     4.4782   37 C    0 0 0

  47 C    1     1.3789     2.6058   51 O    0 0 0
  47 C    1     1.5599     2.9477   41 C    0 0 0
  47 C    1     1.5600     2.9480   43 C    0 0 0
  47 C    1     1.6517     3.1213   46 C    0 1 0
  47 C    1     2.3699     4.4784   37 C    0 1 0
  47 C    1     2.3699     4.4786   40 C    0 1 0

  48 C    1     1.3788     2.6056   52 O    0 0 0
  48 C    1     1.5598     2.9475   44 C    0 0 0
  48 C    1     1.5599     2.9478   42 C    1 0 0
  48 C    1     1.6521     3.1220   45 C    0-1 0
  48 C    1     2.3696     4.4779   37 C    0 0 0
  48 C    1     2.3697     4.4781   40 C    1 0 0

  49 O    1     1.3793     2.6065   45 C    0 0 0
  49 O    1     1.9081     3.6057   62 GE   0 0 0
  49 O    1     1.9693     3.7214   64 GE   0 1 0
  49 O    1     2.4549     4.6391   52 O    0 0 0
  49 O    1     2.4730     4.6732   43 C    1 0 0
  49 O    1     2.4740     4.6753   41 C    0 0 0

  50 O    1     1.3792     2.6064   46 C    0 0 0
  50 O    1     1.9080     3.6055   63 GE   0 0 0
  50 O    1     1.9642     3.7118   61 GE   0 0 0
  50 O    1     2.4556     4.6404   51 O    0 0 0
  50 O    1     2.4731     4.6736   42 C    0 0 0
  50 O    1     2.4742     4.6755   44 C    0 0 0

  51 O    1     1.3789     2.6058   47 C    0 0 0
  51 O    1     1.9109     3.6110   63 GE   0 0 0
  51 O    1     1.9645     3.7123   61 GE   0 1 0
  51 O    1     2.4556     4.6404   50 O    0 0 0
  51 O    1     2.4739     4.6750   41 C    0 0 0
  51 O    1     2.4751     4.6773   43 C    0 0 0

  52 O    1     1.3788     2.6056   48 C    0 0 0
  52 O    1     1.9098     3.6090   62 GE   0 0 0
  52 O    1     1.9598     3.7034   64 GE   0 0 0
  52 O    1     2.4549     4.6391   49 O    0 0 0
  52 O    1     2.4740     4.6752   44 C    0 0 0
  52 O    1     2.4751     4.6772   42 C    1 0 0

  53 O    1     1.3793     2.6065    1 C    0 0 0
  53 O    1     1.9078     3.6053   57 GE   0 0 0
  53 O    1     1.9656     3.7144   60 GE   0 0 0
  53 O    1     2.4584     4.6456   55 O    0 1 0
  53 O    1     2.4699     4.6675    7 C    0 0 0
  53 O    1     2.4789     4.6845    6 C    1 0 0

  54 O    1     1.3792     2.6064    2 C    0 0 0
  54 O    1     1.9077     3.6051   59 GE   0-1 0
  54 O    1     1.9620     3.7076   58 GE   0 0 0
  54 O    1     2.4569     4.6430   56 O    0-1 0
  54 O    1     2.4697     4.6670    5 C    0 0 0
  54 O    1     2.4784     4.6835    8 C    0 0 0

  55 O    1     1.3792     2.6063    3 C    0 0 0
  55 O    1     1.9072     3.6041   57 GE   0-1 0
  55 O    1     1.9618     3.7072   60 GE   0 0 0
  55 O    1     2.4584     4.6456   53 O    0-1 0
  55 O    1     2.4698     4.6673    8 C    1 0 0
  55 O    1     2.4788     4.6842    5 C    0 0 0

  56 O    1     1.3793     2.6064    4 C    0 0 0
  56 O    1     1.9086     3.6067   59 GE   0 0 0
  56 O    1     1.9653     3.7139   58 GE   0 0 0
  56 O    1     2.4569     4.6430   54 O    0 1 0
  56 O    1     2.4698     4.6673    6 C    0 0 0
  56 O    1     2.4788     4.6843    7 C    0 0 0

  57 GE   1     1.9072     3.6041   55 O    0 1 0
  57 GE   1     1.9078     3.6053   53 O    0 0 0
  57 GE   1     2.5389     4.7978   60 GE   0 1 0
  57 GE   1     2.5406     4.8011   59 GE   0 0 0
  57 GE   1     2.5406     4.8011   59 GE   1 0 0
  57 GE   1     2.5424     4.8044   60 GE   0 0 0

  58 GE   1     1.9620     3.7076   54 O    0 0 0
  58 GE   1     1.9653     3.7139   56 O    0 0 0
  58 GE   1     2.5389     4.7978   59 GE   0-1 0
  58 GE   1     2.5406     4.8011   60 GE   0 0 0
  58 GE   1     2.5406     4.8011   60 GE  -1 0 0
  58 GE   1     2.5424     4.8044   59 GE   0 0 0

  59 GE   1     1.9077     3.6051   54 O    0 1 0
  59 GE   1     1.9086     3.6067   56 O    0 0 0
  59 GE   1     2.5389     4.7978   58 GE   0 1 0
  59 GE   1     2.5406     4.8011   57 GE   0 0 0
  59 GE   1     2.5406     4.8011   57 GE  -1 0 0
  59 GE   1     2.5424     4.8044   58 GE   0 0 0

  60 GE   1     1.9618     3.7072   55 O    0 0 0
  60 GE   1     1.9656     3.7144   53 O    0 0 0
  60 GE   1     2.5389     4.7978   57 GE   0-1 0
  60 GE   1     2.5406     4.8011   58 GE   0 0 0
  60 GE   1     2.5406     4.8011   58 GE   1 0 0
  60 GE   1     2.5424     4.8044   57 GE   0 0 0

  61 GE   1     1.9642     3.7118   50 O    0 0 0
  61 GE   1     1.9645     3.7123   51 O    0-1 0
  61 GE   1     2.5388     4.7975   63 GE   0 0 0
  61 GE   1     2.5406     4.8011   64 GE  -1 0 0
  61 GE   1     2.5407     4.8011   64 GE   0 0 0
  61 GE   1     2.5425     4.8047   63 GE   0-1 0

  62 GE   1     1.9081     3.6057   49 O    0 0 0
  62 GE   1     1.9098     3.6090   52 O    0 0 0
  62 GE   1     2.5389     4.7978   64 GE   0 0 0
  62 GE   1     2.5406     4.8011   63 GE   1 0 0
  62 GE   1     2.5406     4.8011   63 GE   0 0 0
  62 GE   1     2.5424     4.8044   64 GE   0 1 0

  63 GE   1     1.9080     3.6055   50 O    0 0 0
  63 GE   1     1.9109     3.6110   51 O    0 0 0
  63 GE   1     2.5388     4.7975   61 GE   0 0 0
  63 GE   1     2.5406     4.8011   62 GE  -1 0 0
  63 GE   1     2.5406     4.8011   62 GE   0 0 0
  63 GE   1     2.5425     4.8047   61 GE   0 1 0

  64 GE   1     1.9598     3.7034   52 O    0 0 0
  64 GE   1     1.9693     3.7214   49 O    0-1 0
  64 GE   1     2.5389     4.7978   62 GE   0 0 0
  64 GE   1     2.5406     4.8011   61 GE   1 0 0
  64 GE   1     2.5407     4.8011   61 GE   0 0 0
  64 GE   1     2.5424     4.8044   62 GE   0-1 0


 SYMMETRY ALLOWED INTERNAL DEGREE(S) OF FREEDOM: 189
 TTTTTTTTTTTTTTTTTTTTTTTTTTTTTT SYMM        TELAPSE       12.02 TCPU        0.20
 TTTTTTTTTTTTTTTTTTTTTTTTTTTTTT INT_SCREEN  TELAPSE       12.04 TCPU        0.22

 *******************************************************************************
 *                             OPTIMIZATION STARTS                             *
 *******************************************************************************
 RECLASIFICATION OF INDICES FOR INTEGRAL CALC ACCORDING TO DIFFERENT CRITERIA:
           FIXDELTE                  FIXDELTX              FIXDELTN
           1.0000000               0.80000000                189
 DEFAULT MAX NUM OF POINTS  378
 *******************************************************************************

 *******************************************************************************
 COORDINATE OPTIMIZATION - POINT    1
 INFORMATION **** EXCBUF **** EXCH. BIPO BUFFER: WORDS USED =     4000000
 WARNING **** EXCBUF **** EXCH. BIPO BUFFER TOO SMALL - TO AVOID I/O SET EXCHSIZE =     6535116

 DFT PARAMETERS

     ATOM       ELECTRONS   NET CHARGE   R(ANGSTROM)
   1   6  C       6.0000      0.0000     0.77000000
  49   8  O       8.0000      0.0000     0.74000000
  57  32  GE     32.0000      0.0000     1.39000000

 SIZE OF GRID=    1657980
 TTTTTTTTTTTTTTTTTTTTTTTTTTTTTT MAKE_GRID2  TELAPSE       17.72 TCPU        5.50
 BECKE WEIGHT FUNCTION
 RADSAFE =     2.00
 TOLERANCES - DENSITY:10**- 6; POTENTIAL:10**- 9; GRID WGT:10**-14

 RADIAL INTEGRATION  - INTERVALS (POINTS,UPPER LIMIT):            1( 75,  4.0*R)

 ANGULAR INTEGRATION - INTERVALS (ACCURACY LEVEL [N. POINTS] UPPER LIMIT):
  1(  4[  86]   0.2)  2(  8[ 194]   0.5)  3( 12[ 350]   0.9)  4( 16[ 974]   3.5)
  5( 12[ 350]9999.0)
 TTTTTTTTTTTTTTTTTTTTTTTTTTTTTT INT_CALC    TELAPSE       17.73 TCPU        5.52

 *******************************************************************************
 Crystal_bare(2x1)                                                               
 CRYSTAL - SCF - TYPE OF CALCULATION :  RESTRICTED CLOSED SHELL
 *******************************************************************************

 CAPPA:IS1  8;IS2  8;IS3  1; K PTS MONK NET  34; SYMMOPS:K SPACE   2;G SPACE   1

 TTTTTTTTTTTTTTTTTTTTTTTTTTTTTT SDIK        TELAPSE       23.89 TCPU       11.59

 AAAAAAAAAAAAAAAAAAAAAAAAAAAAAAAAAAAAAAAAAAAAAAAAAAAAAAAAAAAAAAAAAAAAAAAAAAAAAAA
         ATOMIC WAVEFUNCTION(S)


 NUCLEAR CHARGE  6.0  SYMMETRY SPECIES            S    P
 N. ELECTRONS    6.0  NUMBER OF PRIMITIVE GTOS    9    3
                      NUMBER OF CONTRACTED GTOS   3    2
                      NUMBER OF CLOSED SHELLS     2    0
                      OPEN SHELL OCCUPATION       0    2

  ZNUC SCFIT  TOTAL HF ENERGY   KINETIC ENERGY   VIRIAL THEOREM ACCURACY
   6.0   9   -3.765831823E+01  3.765320062E+01 -2.000135914E+00  1.5E-06

 NUCLEAR CHARGE  8.0  SYMMETRY SPECIES            S    P
 N. ELECTRONS    8.0  NUMBER OF PRIMITIVE GTOS   10    6
                      NUMBER OF CONTRACTED GTOS   4    3
                      NUMBER OF CLOSED SHELLS     2    0
                      OPEN SHELL OCCUPATION       0    4

  ZNUC SCFIT  TOTAL HF ENERGY   KINETIC ENERGY   VIRIAL THEOREM ACCURACY
   8.0  13   -7.480300557E+01  7.484348361E+01 -1.999459164E+00  4.9E-06

 NUCLEAR CHARGE 32.0  SYMMETRY SPECIES            S    P    D
 N. ELECTRONS   32.0  NUMBER OF PRIMITIVE GTOS   17   12    8
                      NUMBER OF CONTRACTED GTOS   6    5    4
                      NUMBER OF CLOSED SHELLS     4    2    1
                      OPEN SHELL OCCUPATION       0    2    0

  ZNUC SCFIT  TOTAL HF ENERGY   KINETIC ENERGY   VIRIAL THEOREM ACCURACY
  32.0  15   -2.075280656E+03  2.075428355E+03 -1.999928835E+00  4.5E-06

 AAAAAAAAAAAAAAAAAAAAAAAAAAAAAAAAAAAAAAAAAAAAAAAAAAAAAAAAAAAAAAAAAAAAAAAAAAAAAAA

 CHARGE NORMALIZATION FACTOR   1.00000000
 TOTAL ATOMIC CHARGES:
   6.0000000   6.0000000   6.0000000   6.0000000   6.0000000   6.0000000
   6.0000000   6.0000000   6.0000000   6.0000000   6.0000000   6.0000000
   6.0000000   6.0000000   6.0000000   6.0000000   6.0000000   6.0000000
   6.0000000   6.0000000   6.0000000   6.0000000   6.0000000   6.0000000
   6.0000000   6.0000000   6.0000000   6.0000000   6.0000000   6.0000000
   6.0000000   6.0000000   6.0000000   6.0000000   6.0000000   6.0000000
   6.0000000   6.0000000   6.0000000   6.0000000   6.0000000   6.0000000
   6.0000000   6.0000000   6.0000000   6.0000000   6.0000000   6.0000000
   8.0000000   8.0000000   8.0000000   8.0000000   8.0000000   8.0000000
   8.0000000   8.0000000  32.0000000  32.0000000  32.0000000  32.0000000
  32.0000000  32.0000000  32.0000000  32.0000000
 TTTTTTTTTTTTTTTTTTTTTTTTTTTTTT MOQGAD      TELAPSE       26.11 TCPU       13.78
 TTTTTTTTTTTTTTTTTTTTTTTTTTTTTT SHELLXN     TELAPSE       73.52 TCPU       59.42
 TTTTTTTTTTTTTTTTTTTTTTTTTTTTTT MONMO3      TELAPSE       84.02 TCPU       69.66
 NUMERICALLY INTEGRATED DENSITY    608.0074297576
 TTTTTTTTTTTTTTTTTTTTTTTTTTTTTT NUMDFT      TELAPSE       85.70 TCPU       71.26
 CYC   0 ETOT(AU) -1.906713708457E+04 DETOT -1.91E+04 tst  0.00E+00 PX  1.00E+00
 TTTTTTTTTTTTTTTTTTTTTTTTTTTTTT DIIS        TELAPSE       85.80 TCPU       71.34
 TTTTTTTTTTTTTTTTTTTTTTTTTTTTTT FDIK        TELAPSE      131.59 TCPU      116.67
 POSSIBLY CONDUCTING STATE - EFERMI(AU) -9.5483518E-02 (RES. CHARGE  2.76E-11;IT.  8)
 TTTTTTTTTTTTTTTTTTTTTTTTTTTTTT PDIG        TELAPSE      132.44 TCPU      117.49
 CHARGE NORMALIZATION FACTOR   1.00000000
 TOTAL ATOMIC CHARGES:
   5.6405787   5.6403823   5.6404569   5.6407266   6.1431369   6.1401683
   6.1401853   6.1431454   6.0396108   5.9915438   6.0396346   5.9915196
   5.9618221   6.0483944   5.9618449   6.0484003   5.9961850   5.9955264
   5.9955173   5.9961879   5.9813943   6.0205838   6.0205952   5.9813838
   6.0206651   5.9813325   6.0206836   5.9813120   5.9961965   5.9956116
   5.9960837   5.9955016   5.9620252   6.0481101   6.0481923   5.9620855
   5.9917409   6.0392481   6.0392901   5.9916987   6.1408930   6.1436522
   6.1408903   6.1436460   5.6407738   5.6405676   5.6392332   5.6388139
   8.7975933   8.7965281   8.7981284   8.7970705   8.7968178   8.7960682
   8.7956970   8.7969493  31.4180596  31.3870976  31.4192187  31.3881516
  31.3878360  31.4197228  31.4201067  31.3877823
 TTTTTTTTTTTTTTTTTTTTTTTTTTTTTT MOQGAD      TELAPSE      132.46 TCPU      117.51
 TTTTTTTTTTTTTTTTTTTTTTTTTTTTTT SHELLXN     TELAPSE      183.25 TCPU      166.33
 TTTTTTTTTTTTTTTTTTTTTTTTTTTTTT MONMO3      TELAPSE      194.49 TCPU      177.26
 NUMERICALLY INTEGRATED DENSITY    608.0040177269
 TTTTTTTTTTTTTTTTTTTTTTTTTTTTTT NUMDFT      TELAPSE      199.24 TCPU      181.93
 CYC   1 ETOT(AU) -1.904298737663E+04 DETOT  2.41E+01 tst  0.00E+00 PX  1.00E+00
 TTTTTTTTTTTTTTTTTTTTTTTTTTTTTT DIIS        TELAPSE      199.93 TCPU      182.60
 DIIS TEST: 0.30471E+01 AT SCF   CYCLE   1 - MIX   35 %
 TTTTTTTTTTTTTTTTTTTTTTTTTTTTTT FDIK        TELAPSE      210.43 TCPU      192.92
 POSSIBLY CONDUCTING STATE - EFERMI(AU) -3.5102740E-02 (RES. CHARGE  1.52E-10;IT. 10)
 TTTTTTTTTTTTTTTTTTTTTTTTTTTTTT PDIG        TELAPSE      211.37 TCPU      193.86
 CHARGE NORMALIZATION FACTOR   1.00000000
 TOTAL ATOMIC CHARGES:
   5.8812866   5.8820226   5.8822060   5.8815497   5.9935203   5.9915361
   5.9917137   5.9932159   6.0671389   5.9663335   6.0670453   5.9663144
   5.9794357   5.9972172   5.9793435   5.9976635   5.9919033   5.9925818
   5.9923467   5.9919751   5.9870669   6.0069868   6.0072640   5.9868489
   6.0071555   5.9871511   6.0071992   5.9869923   5.9924494   5.9926609
   5.9920906   5.9922423   5.9785124   5.9974491   5.9977906   5.9786024
   5.9639827   6.0663309   6.0665722   5.9639116   5.9888474   5.9916921
   5.9889506   5.9909820   5.8795391   5.8790517   5.8780182   5.8770729
   8.1855978   8.1892993   8.1884629   8.1917054   8.1991135   8.2017492
   8.2022810   8.1990540  31.9459622  31.9972102  31.9481576  31.9982722
  31.9366133  31.8799598  31.8803043  31.9364933
 TTTTTTTTTTTTTTTTTTTTTTTTTTTTTT MOQGAD      TELAPSE      211.38 TCPU      193.87
 TTTTTTTTTTTTTTTTTTTTTTTTTTTTTT SHELLXN     TELAPSE      262.19 TCPU      242.97
 TTTTTTTTTTTTTTTTTTTTTTTTTTTTTT MONMO3      TELAPSE      272.88 TCPU      253.37
 NUMERICALLY INTEGRATED DENSITY    608.0041992599
 TTTTTTTTTTTTTTTTTTTTTTTTTTTTTT NUMDFT      TELAPSE      277.65 TCPU      257.99
 CYC   2 ETOT(AU) -1.904252469968E+04 DETOT  4.63E-01 tst  8.88E-03 PX  1.96E-01
 TTTTTTTTTTTTTTTTTTTTTTTTTTTTTT DIIS        TELAPSE      278.30 TCPU      258.63
 DIIS TEST: 0.67954E+01 AT SCF   CYCLE   2 - DIIS ACTIVE - HISTORY:     2 CYCLES
 TTTTTTTTTTTTTTTTTTTTTTTTTTTTTT FDIK        TELAPSE      288.76 TCPU      268.96
 POSSIBLY CONDUCTING STATE - EFERMI(AU) -1.5143827E-01 (RES. CHARGE  1.31E-12;IT. 14)
 TTTTTTTTTTTTTTTTTTTTTTTTTTTTTT PDIG        TELAPSE      289.81 TCPU      269.98
 CHARGE NORMALIZATION FACTOR   1.00000000
 TOTAL ATOMIC CHARGES:
   5.8434613   5.8445285   5.8448687   5.8439335   5.9920102   5.9910242
   5.9910574   5.9917856   6.0838070   5.9909614   6.0837245   5.9908780
   5.9961311   6.0177187   5.9960676   6.0183670   6.0039155   6.0046974
   6.0046972   6.0041261   5.9987908   6.0110065   6.0112739   5.9986451
   6.0121671   5.9999643   6.0122046   5.9998328   6.0060690   6.0056229
   6.0055737   6.0055530   6.0016162   6.0188799   6.0189298   6.0015403
   5.9990270   6.1085883   6.1091363   5.9988550   6.0378939   6.0398690
   6.0380833   6.0391632   5.9754012   5.9758319   5.9737850   5.9745304
   8.5966903   8.5962954   8.5995516   8.5987170   8.4312011   8.4317653
   8.4315220   8.4313526  30.5877983  30.5511377  30.5878093  30.5511637
  32.3210153  32.5228798  32.5238790  32.3216267
 TTTTTTTTTTTTTTTTTTTTTTTTTTTTTT MOQGAD      TELAPSE      289.82 TCPU      270.00
 TTTTTTTTTTTTTTTTTTTTTTTTTTTTTT SHELLXN     TELAPSE      340.42 TCPU      318.88
 TTTTTTTTTTTTTTTTTTTTTTTTTTTTTT MONMO3      TELAPSE      351.69 TCPU      329.84
 NUMERICALLY INTEGRATED DENSITY    608.0044458446
 TTTTTTTTTTTTTTTTTTTTTTTTTTTTTT NUMDFT      TELAPSE      356.51 TCPU      334.47
 CYC   3 ETOT(AU) -1.900960913517E+04 DETOT  3.29E+01 tst  7.29E-02 PX  4.56E-01
 TTTTTTTTTTTTTTTTTTTTTTTTTTTTTT DIIS        TELAPSE      357.18 TCPU      335.14
 DIIS TEST: 0.10912E+03 AT SCF   CYCLE   3 - DIIS ACTIVE - HISTORY:     3 CYCLES
 TTTTTTTTTTTTTTTTTTTTTTTTTTTTTT FDIK        TELAPSE      365.44 TCPU      343.28
 POSSIBLY CONDUCTING STATE - EFERMI(AU) -1.2581990E-01 (RES. CHARGE  9.81E-11;IT. 12)
 TTTTTTTTTTTTTTTTTTTTTTTTTTTTTT PDIG        TELAPSE      366.44 TCPU      344.26
 CHARGE NORMALIZATION FACTOR   1.00000000
 TOTAL ATOMIC CHARGES:
   5.9176306   5.9190337   5.9194599   5.9181826   6.0288343   6.0284390
   6.0285024   6.0286687   6.0979816   5.9941570   6.0979312   5.9940643
   5.9994528   6.0195117   5.9992815   6.0199747   6.0045332   6.0045953
   6.0046035   6.0045976   5.9983573   6.0108200   6.0111210   5.9981734
   6.0109617   5.9987374   6.0108807   5.9986114   6.0042446   6.0048887
   6.0037696   6.0045963   5.9947479   6.0159806   6.0160727   5.9945533
   5.9891188   6.0877617   6.0881489   5.9890641   6.0023307   6.0037310
   6.0025408   6.0033289   5.8546110   5.8553245   5.8524643   5.8534340
   8.4921863   8.4918620   8.4950423   8.4944597   8.5742563   8.5746324
   8.5745692   8.5746749  32.0125688  31.9096794  32.0125853  31.9094161
  31.0155286  31.0822784  31.0828213  31.0156279
 TTTTTTTTTTTTTTTTTTTTTTTTTTTTTT MOQGAD      TELAPSE      366.46 TCPU      344.28
 TTTTTTTTTTTTTTTTTTTTTTTTTTTTTT SHELLXN     TELAPSE      416.81 TCPU      393.01
 TTTTTTTTTTTTTTTTTTTTTTTTTTTTTT MONMO3      TELAPSE      428.25 TCPU      404.15
 NUMERICALLY INTEGRATED DENSITY    608.0043905575
 TTTTTTTTTTTTTTTTTTTTTTTTTTTTTT NUMDFT      TELAPSE      433.52 TCPU      409.22
 CYC   4 ETOT(AU) -1.903518735926E+04 DETOT -2.56E+01 tst  5.53E-02 PX  5.61E-01
 TTTTTTTTTTTTTTTTTTTTTTTTTTTTTT DIIS        TELAPSE      434.25 TCPU      409.93
 DIIS TEST: 0.27037E+02 AT SCF   CYCLE   4 - DIIS ACTIVE - HISTORY:     4 CYCLES
 TTTTTTTTTTTTTTTTTTTTTTTTTTTTTT FDIK        TELAPSE      443.31 TCPU      418.79
 POSSIBLY CONDUCTING STATE - EFERMI(AU) -1.0508096E-01 (RES. CHARGE  7.67E-12;IT. 10)
 TTTTTTTTTTTTTTTTTTTTTTTTTTTTTT PDIG        TELAPSE      444.24 TCPU      419.71
 CHARGE NORMALIZATION FACTOR   1.00000000
 TOTAL ATOMIC CHARGES:
   5.8175904   5.8181651   5.8185047   5.8179994   6.0151587   6.0139476
   6.0141447   6.0151776   6.0809360   5.9724912   6.0809501   5.9725543
   5.9856850   6.0155644   5.9857063   6.0158715   5.9986186   5.9985967
   5.9983659   5.9988046   5.9932011   6.0080561   6.0082708   5.9930539
   6.0083644   5.9934483   6.0083742   5.9934725   5.9992695   5.9994962
   5.9989527   5.9993488   5.9869655   6.0148261   6.0148886   5.9867353
   5.9735827   6.0862834   6.0866240   5.9734198   6.0228699   6.0245335
   6.0232130   6.0241812   5.8418204   5.8428459   5.8401885   5.8413543
   8.5733805   8.5729863   8.5759790   8.5753889   8.5439030   8.5444906
   8.5445081   8.5441879  31.3584946  31.2966392  31.3589430  31.2967385
  31.7591566  31.8366958  31.8368301  31.7592044
 TTTTTTTTTTTTTTTTTTTTTTTTTTTTTT MOQGAD      TELAPSE      444.25 TCPU      419.72
 TTTTTTTTTTTTTTTTTTTTTTTTTTTTTT SHELLXN     TELAPSE      494.45 TCPU      468.65
 TTTTTTTTTTTTTTTTTTTTTTTTTTTTTT MONMO3      TELAPSE      506.14 TCPU      480.13
 NUMERICALLY INTEGRATED DENSITY    608.0043048353
 TTTTTTTTTTTTTTTTTTTTTTTTTTTTTT NUMDFT      TELAPSE      510.89 TCPU      484.77
 CYC   5 ETOT(AU) -1.904143203760E+04 DETOT -6.24E+00 tst  6.99E-04 PX  2.69E-01
 TTTTTTTTTTTTTTTTTTTTTTTTTTTTTT DIIS        TELAPSE      511.61 TCPU      485.47
 DIIS TEST: 0.65738E+01 AT SCF   CYCLE   5 - DIIS ACTIVE - HISTORY:     5 CYCLES
 TTTTTTTTTTTTTTTTTTTTTTTTTTTTTT FDIK        TELAPSE      522.28 TCPU      496.04
 POSSIBLY CONDUCTING STATE - EFERMI(AU) -8.5612298E-02 (RES. CHARGE  7.18E-10;IT.  8)
 TTTTTTTTTTTTTTTTTTTTTTTTTTTTTT PDIG        TELAPSE      523.15 TCPU      496.90
 CHARGE NORMALIZATION FACTOR   1.00000000
 TOTAL ATOMIC CHARGES:
   5.7839462   5.7844648   5.7847761   5.7842522   6.0301476   6.0288994
   6.0289006   6.0302911   6.0725979   5.9729091   6.0725493   5.9728740
   5.9806381   6.0190471   5.9805425   6.0191112   5.9977321   5.9973047
   5.9971220   5.9978897   5.9910704   6.0083521   6.0084108   5.9910445
   6.0085862   5.9908389   6.0086443   5.9909299   5.9980141   5.9978436
   5.9980787   5.9978043   5.9820322   6.0198001   6.0198624   5.9818065
   5.9776580   6.0742108   6.0740602   5.9775115   6.0326890   6.0342795
   6.0325347   6.0342521   5.7907248   5.7911753   5.7898268   5.7897670
   8.5675996   8.5678049   8.5696243   8.5697450   8.5604267   8.5603569
   8.5602963   8.5602658  31.6594749  31.6004303  31.6605454  31.6010725
  31.5249042  31.5922502  31.5923455  31.5250527
 TTTTTTTTTTTTTTTTTTTTTTTTTTTTTT MOQGAD      TELAPSE      523.16 TCPU      496.91
 TTTTTTTTTTTTTTTTTTTTTTTTTTTTTT SHELLXN     TELAPSE      573.26 TCPU      545.73
 TTTTTTTTTTTTTTTTTTTTTTTTTTTTTT MONMO3      TELAPSE      585.10 TCPU      557.35
 NUMERICALLY INTEGRATED DENSITY    608.0042607699
 TTTTTTTTTTTTTTTTTTTTTTTTTTTTTT NUMDFT      TELAPSE      590.49 TCPU      562.62
 CYC   6 ETOT(AU) -1.904348025984E+04 DETOT -2.05E+00 tst  2.90E-04 PX  1.27E-01
 TTTTTTTTTTTTTTTTTTTTTTTTTTTTTT DIIS        TELAPSE      591.27 TCPU      563.39
 DIIS TEST: 0.10986E+00 AT SCF   CYCLE   6 - DIIS ACTIVE - HISTORY:     6 CYCLES
 TTTTTTTTTTTTTTTTTTTTTTTTTTTTTT FDIK        TELAPSE      600.86 TCPU      572.86
 POSSIBLY CONDUCTING STATE - EFERMI(AU) -7.4691854E-02 (RES. CHARGE  2.62E-11;IT. 10)
 TTTTTTTTTTTTTTTTTTTTTTTTTTTTTT PDIG        TELAPSE      601.77 TCPU      573.75
 CHARGE NORMALIZATION FACTOR   1.00000000
 TOTAL ATOMIC CHARGES:
   5.7829963   5.7833284   5.7834888   5.7831996   6.0577124   6.0562499
   6.0562731   6.0577653   6.0670181   6.0013252   6.0670090   6.0012388
   5.9852638   6.0265225   5.9852729   6.0265214   6.0000849   5.9997498
   5.9996855   6.0002467   5.9902999   6.0118997   6.0119838   5.9903594
   6.0109781   5.9896386   6.0109709   5.9897134   5.9977415   5.9973861
   5.9976027   5.9973481   5.9784613   6.0223712   6.0224849   5.9784211
   5.9896501   6.0556128   6.0556088   5.9894111   6.0384093   6.0401238
   6.0384203   6.0401067   5.7528274   5.7532905   5.7517037   5.7515391
   8.5283795   8.5290941   8.5300559   8.5308278   8.5745391   8.5749608
   8.5747201   8.5744868  31.7073251  31.6613060  31.7084859  31.6622108
  31.5039770  31.5299084  31.5303121  31.5040937
 TTTTTTTTTTTTTTTTTTTTTTTTTTTTTT MOQGAD      TELAPSE      601.79 TCPU      573.76
 TTTTTTTTTTTTTTTTTTTTTTTTTTTTTT SHELLXN     TELAPSE      652.29 TCPU      622.68
 TTTTTTTTTTTTTTTTTTTTTTTTTTTTTT MONMO3      TELAPSE      663.65 TCPU      633.78
 NUMERICALLY INTEGRATED DENSITY    608.0042224550
 TTTTTTTTTTTTTTTTTTTTTTTTTTTTTT NUMDFT      TELAPSE      669.07 TCPU      639.01
 CYC   7 ETOT(AU) -1.904306818116E+04 DETOT  4.12E-01 tst  1.21E-04 PX  4.48E-02
 TTTTTTTTTTTTTTTTTTTTTTTTTTTTTT DIIS        TELAPSE      669.80 TCPU      639.73
 DIIS TEST: 0.12316E+01 AT SCF   CYCLE   7 - DIIS ACTIVE - HISTORY:     7 CYCLES
 TTTTTTTTTTTTTTTTTTTTTTTTTTTTTT FDIK        TELAPSE      679.63 TCPU      649.45
 POSSIBLY CONDUCTING STATE - EFERMI(AU) -7.7483791E-02 (RES. CHARGE  7.39E-13;IT. 10)
 TTTTTTTTTTTTTTTTTTTTTTTTTTTTTT PDIG        TELAPSE      680.56 TCPU      650.36
 CHARGE NORMALIZATION FACTOR   1.00000000
 TOTAL ATOMIC CHARGES:
   5.7761748   5.7763592   5.7764821   5.7762793   6.0470269   6.0453547
   6.0453731   6.0470012   6.0636680   5.9897638   6.0636790   5.9897912
   5.9793153   6.0219269   5.9793374   6.0219336   5.9972563   5.9967783
   5.9967991   5.9973484   5.9888982   6.0103082   6.0103633   5.9888852
   6.0105242   5.9889215   6.0105969   5.9889325   5.9976394   5.9972186
   5.9974979   5.9971380   5.9796971   6.0222632   6.0224128   5.9798219
   5.9878169   6.0627810   6.0628039   5.9876424   6.0437965   6.0454873
   6.0438104   6.0453988   5.7710297   5.7714718   5.7697552   5.7697597
   8.5525221   8.5531215   8.5538088   8.5545150   8.5570943   8.5575954
   8.5574443   8.5572143  31.6129922  31.5665562  31.6142701  31.5675624
  31.5919340  31.6353977  31.6356559  31.5919945
 TTTTTTTTTTTTTTTTTTTTTTTTTTTTTT MOQGAD      TELAPSE      680.58 TCPU      650.37
 TTTTTTTTTTTTTTTTTTTTTTTTTTTTTT SHELLXN     TELAPSE      731.21 TCPU      699.35
 TTTTTTTTTTTTTTTTTTTTTTTTTTTTTT MONMO3      TELAPSE      742.44 TCPU      710.32
 NUMERICALLY INTEGRATED DENSITY    608.0042232122
 TTTTTTTTTTTTTTTTTTTTTTTTTTTTTT NUMDFT      TELAPSE      747.86 TCPU      715.54
 CYC   8 ETOT(AU) -1.904350576935E+04 DETOT -4.38E-01 tst  5.76E-05 PX  5.47E-02
 TTTTTTTTTTTTTTTTTTTTTTTTTTTTTT DIIS        TELAPSE      748.66 TCPU      716.32
 DIIS TEST: 0.15007E-01 AT SCF   CYCLE   8 - DIIS ACTIVE - HISTORY:     8 CYCLES
 TTTTTTTTTTTTTTTTTTTTTTTTTTTTTT FDIK        TELAPSE      762.24 TCPU      729.78
 POSSIBLY CONDUCTING STATE - EFERMI(AU) -8.1800323E-02 (RES. CHARGE  4.43E-12;IT. 10)
 TTTTTTTTTTTTTTTTTTTTTTTTTTTTTT PDIG        TELAPSE      763.15 TCPU      730.68
 CHARGE NORMALIZATION FACTOR   1.00000000
 TOTAL ATOMIC CHARGES:
   5.7793498   5.7797508   5.7799116   5.7795209   6.0417079   6.0399774
   6.0399645   6.0416842   6.0683531   5.9814111   6.0683478   5.9814395
[...]
  38 C    1     1.5770     2.9800   33 C   -1 0 0
  38 C    1     1.5776     2.9813   42 C    0 0 0
  38 C    1     1.5788     2.9834   43 C    0 0 0
  38 C    1     2.5406     4.8011   39 C    0 0 0
  38 C    1     2.5406     4.8011   39 C   -1 0 0

  39 C    1     1.5770     2.9800   33 C    0 0 0
  39 C    1     1.5770     2.9800   36 C    0 0 0
  39 C    1     1.5776     2.9813   44 C    0 0 0
  39 C    1     1.5788     2.9834   41 C    0 0 0
  39 C    1     2.5406     4.8011   38 C    0 0 0
  39 C    1     2.5406     4.8011   38 C    1 0 0

  40 C    1     1.5350     2.9008   35 C   -1 0 0
  40 C    1     1.5351     2.9008   34 C    0 0 0
  40 C    1     1.5523     2.9333   42 C    0 0 0
  40 C    1     1.5533     2.9353   43 C    0-1 0
  40 C    1     2.3694     4.4776   48 C   -1 0 0
  40 C    1     2.3695     4.4777   46 C    0 0 0

  41 C    1     1.5533     2.9353   37 C    0 1 0
  41 C    1     1.5550     2.9385   47 C    0 0 0
  41 C    1     1.5551     2.9387   45 C    0 0 0
  41 C    1     1.5788     2.9834   39 C    0 0 0
  41 C    1     2.3870     4.5108   44 C    0 1 0
  41 C    1     2.5116     4.7462   49 O    0 0 0

  42 C    1     1.5523     2.9333   40 C    0 0 0
  42 C    1     1.5548     2.9381   48 C   -1 0 0
  42 C    1     1.5549     2.9384   46 C    0 0 0
  42 C    1     1.5776     2.9813   38 C    0 0 0
  42 C    1     2.3870     4.5108   43 C    0-1 0
  42 C    1     2.5116     4.7463   52 O   -1 0 0

  43 C    1     1.5533     2.9353   40 C    0 1 0
  43 C    1     1.5550     2.9385   47 C    0 0 0
  43 C    1     1.5551     2.9387   45 C   -1 0 0
  43 C    1     1.5788     2.9834   38 C    0 0 0
  43 C    1     2.3870     4.5108   42 C    0 1 0
  43 C    1     2.5113     4.7457   51 O    0 0 0

  44 C    1     1.5523     2.9333   37 C    0 0 0
  44 C    1     1.5548     2.9382   48 C    0 0 0
  44 C    1     1.5549     2.9383   46 C    0 0 0
  44 C    1     1.5776     2.9813   39 C    0 0 0
  44 C    1     2.3870     4.5108   41 C    0-1 0
  44 C    1     2.5114     4.7459   52 O    0 0 0

  45 C    1     1.3994     2.6445   49 O    0 0 0
  45 C    1     1.5551     2.9387   41 C    0 0 0
  45 C    1     1.5551     2.9387   43 C    1 0 0
  45 C    1     1.6758     3.1667   48 C    0 1 0
  45 C    1     2.3699     4.4785   40 C    1 1 0
  45 C    1     2.3699     4.4785   37 C    0 1 0

  46 C    1     1.3994     2.6444   50 O    0 0 0
  46 C    1     1.5549     2.9383   44 C    0 0 0
  46 C    1     1.5549     2.9384   42 C    0 0 0
  46 C    1     1.6758     3.1667   47 C    0-1 0
  46 C    1     2.3695     4.4776   37 C    0 0 0
  46 C    1     2.3695     4.4777   40 C    0 0 0

  47 C    1     1.3994     2.6445   51 O    0 0 0
  47 C    1     1.5550     2.9385   43 C    0 0 0
  47 C    1     1.5550     2.9385   41 C    0 0 0
  47 C    1     1.6758     3.1667   46 C    0 1 0
  47 C    1     2.3699     4.4784   37 C    0 1 0
  47 C    1     2.3699     4.4784   40 C    0 1 0

  48 C    1     1.3994     2.6444   52 O    0 0 0
  48 C    1     1.5548     2.9381   42 C    1 0 0
  48 C    1     1.5548     2.9382   44 C    0 0 0
  48 C    1     1.6758     3.1667   45 C    0-1 0
  48 C    1     2.3694     4.4776   40 C    1 0 0
  48 C    1     2.3695     4.4777   37 C    0 0 0

  49 O    1     1.3994     2.6445   45 C    0 0 0
  49 O    1     2.0073     3.7933   64 GE   0 1 0
  49 O    1     2.0215     3.8201   62 GE   0 0 0
  49 O    1     2.4602     4.6491   52 O    0 1 0
  49 O    1     2.4658     4.6597   48 C    0 1 0
  49 O    1     2.5116     4.7462   41 C    0 0 0

  50 O    1     1.3994     2.6444   46 C    0 0 0
  50 O    1     2.0081     3.7948   61 GE   0 0 0
  50 O    1     2.0191     3.8156   63 GE   0 0 0
  50 O    1     2.4602     4.6492   51 O    0-1 0
  50 O    1     2.4658     4.6598   47 C    0-1 0
  50 O    1     2.5116     4.7463   42 C    0 0 0

  51 O    1     1.3994     2.6445   47 C    0 0 0
  51 O    1     2.0074     3.7935   61 GE   0 1 0
  51 O    1     2.0216     3.8203   63 GE   0 0 0
  51 O    1     2.4602     4.6492   50 O    0 1 0
  51 O    1     2.4661     4.6603   46 C    0 1 0
  51 O    1     2.5113     4.7457   43 C    0 0 0

  52 O    1     1.3994     2.6444   48 C    0 0 0
  52 O    1     2.0086     3.7957   64 GE   0 0 0
  52 O    1     2.0189     3.8152   62 GE   0 0 0
  52 O    1     2.4602     4.6491   49 O    0-1 0
  52 O    1     2.4661     4.6603   45 C    0-1 0
  52 O    1     2.5114     4.7459   44 C    0 0 0

  53 O    1     1.3994     2.6445    1 C    0 0 0
  53 O    1     2.0077     3.7940   60 GE   0 0 0
  53 O    1     2.0210     3.8192   57 GE   0 0 0
  53 O    1     2.4601     4.6488   55 O    0 0 0
  53 O    1     2.4660     4.6601    3 C    0 0 0
  53 O    1     2.5104     4.7440    6 C    1 0 0

  54 O    1     1.3994     2.6444    2 C    0 0 0
  54 O    1     2.0082     3.7949   58 GE   0 0 0
  54 O    1     2.0194     3.8161   59 GE   0-1 0
  54 O    1     2.4602     4.6491   56 O    0 0 0
  54 O    1     2.4658     4.6598    4 C    0 0 0
  54 O    1     2.5106     4.7443    8 C    0 0 0

  55 O    1     1.3994     2.6444    3 C    0 0 0
  55 O    1     2.0086     3.7957   60 GE   0 0 0
  55 O    1     2.0188     3.8149   57 GE   0-1 0
  55 O    1     2.4601     4.6488   53 O    0 0 0
  55 O    1     2.4658     4.6597    1 C    0 0 0
  55 O    1     2.5106     4.7443    5 C    0 0 0

  56 O    1     1.3994     2.6445    4 C    0 0 0
  56 O    1     2.0073     3.7933   58 GE   0 0 0
  56 O    1     2.0216     3.8203   59 GE   0 0 0
  56 O    1     2.4602     4.6491   54 O    0 0 0
  56 O    1     2.4661     4.6602    2 C    0 0 0
  56 O    1     2.5104     4.7440    7 C    0 0 0

  57 GE   1     2.0188     3.8149   55 O    0 1 0
  57 GE   1     2.0210     3.8192   53 O    0 0 0
  57 GE   1     2.5406     4.8011   59 GE   1 0 0
  57 GE   1     2.5406     4.8011   59 GE   0 0 0
  57 GE   1     2.5411     4.8019   60 GE   0 0 0
  57 GE   1     2.5412     4.8022   60 GE   0 1 0

  58 GE   1     2.0073     3.7933   56 O    0 0 0
  58 GE   1     2.0082     3.7949   54 O    0 0 0
  58 GE   1     2.5406     4.8011   60 GE   0 0 0
  58 GE   1     2.5406     4.8011   60 GE  -1 0 0
  58 GE   1     2.5410     4.8019   59 GE   0 0 0
  58 GE   1     2.5412     4.8022   59 GE   0-1 0

  59 GE   1     2.0194     3.8161   54 O    0 1 0
  59 GE   1     2.0216     3.8203   56 O    0 0 0
  59 GE   1     2.5406     4.8011   57 GE  -1 0 0
  59 GE   1     2.5406     4.8011   57 GE   0 0 0
  59 GE   1     2.5410     4.8019   58 GE   0 0 0
  59 GE   1     2.5412     4.8022   58 GE   0 1 0

  60 GE   1     2.0077     3.7940   53 O    0 0 0
  60 GE   1     2.0086     3.7957   55 O    0 0 0
  60 GE   1     2.5406     4.8011   58 GE   0 0 0
  60 GE   1     2.5406     4.8011   58 GE   1 0 0
  60 GE   1     2.5411     4.8019   57 GE   0 0 0
  60 GE   1     2.5412     4.8022   57 GE   0-1 0

  61 GE   1     2.0074     3.7935   51 O    0-1 0
  61 GE   1     2.0081     3.7948   50 O    0 0 0
  61 GE   1     2.5406     4.8011   64 GE  -1 0 0
  61 GE   1     2.5406     4.8011   64 GE   0 0 0
  61 GE   1     2.5408     4.8015   63 GE   0-1 0
  61 GE   1     2.5414     4.8026   63 GE   0 0 0

  62 GE   1     2.0189     3.8152   52 O    0 0 0
  62 GE   1     2.0215     3.8201   49 O    0 0 0
  62 GE   1     2.5406     4.8011   63 GE   0 0 0
  62 GE   1     2.5406     4.8011   63 GE   1 0 0
  62 GE   1     2.5410     4.8019   64 GE   0 0 0
  62 GE   1     2.5412     4.8022   64 GE   0 1 0

  63 GE   1     2.0191     3.8156   50 O    0 0 0
  63 GE   1     2.0216     3.8203   51 O    0 0 0
  63 GE   1     2.5406     4.8011   62 GE   0 0 0
  63 GE   1     2.5406     4.8011   62 GE  -1 0 0
  63 GE   1     2.5408     4.8015   61 GE   0 1 0
  63 GE   1     2.5414     4.8026   61 GE   0 0 0

  64 GE   1     2.0073     3.7933   49 O    0-1 0
  64 GE   1     2.0086     3.7957   52 O    0 0 0
  64 GE   1     2.5406     4.8011   61 GE   1 0 0
  64 GE   1     2.5406     4.8011   61 GE   0 0 0
  64 GE   1     2.5410     4.8019   62 GE   0 0 0
  64 GE   1     2.5412     4.8022   62 GE   0-1 0


 FINAL OPTIMIZED GEOMETRY - DIMENSIONALITY OF THE SYSTEM      2
 (NON PERIODIC DIRECTION: LATTICE PARAMETER FORMALLY SET TO 500)
 *******************************************************************************
 LATTICE PARAMETERS (ANGSTROMS AND DEGREES) - BOHR = 0.5291772083 ANGSTROM
 PRIMITIVE CELL
         A              B              C           ALPHA      BETA       GAMMA 
     5.08126933     5.08126933   500.00000000    90.000000  90.000000  90.000000
 *******************************************************************************
 ATOMS IN THE ASYMMETRIC UNIT   64 - ATOMS IN THE UNIT CELL:   64
     ATOM                 X/A                 Y/B             Z(ANGSTROM)
 *******************************************************************************
      1 T   6 C    -4.999590308339E-01  1.647620242330E-01  4.875552079883E+00
      2 T   6 C    -4.637764058445E-05 -1.650233312267E-01  4.876132015101E+00
      3 T   6 C     4.999534030156E-01 -1.650238146834E-01  4.876091206344E+00
      4 T   6 C     4.089486839487E-05  1.647659877861E-01  4.875578486317E+00
      5 T   6 C     2.499839216518E-01 -2.350702229380E-01  4.053216632781E+00
      6 T   6 C    -2.499890233055E-01  2.347014450914E-01  4.052055817218E+00
      7 T   6 C     2.500101418004E-01  2.347013920796E-01  4.052056470197E+00
      8 T   6 C    -2.500149203271E-01 -2.350701596193E-01  4.053215796351E+00
      9 T   6 C     2.499978305128E-01 -4.999830368738E-01  3.230452839856E+00
     10 T   6 C    -2.499966031067E-01 -4.222754349733E-04  3.059347873241E+00
     11 T   6 C    -2.500019915677E-01 -4.999830228077E-01  3.230452371662E+00
     12 T   6 C     2.500019846177E-01 -4.223131871522E-04  3.059348248462E+00
     13 T   6 C     4.999986846566E-01  4.999927751363E-01  2.296088378423E+00
     14 T   6 C     1.200633424719E-06 -3.331906818679E-04  2.197592612051E+00
     15 T   6 C    -1.211480776669E-06  4.999924738620E-01  2.296087540623E+00
     16 T   6 C    -4.999988157911E-01 -3.332613300659E-04  2.197594761881E+00
     17 T   6 C     4.999955344185E-01  2.524672547168E-01  1.351211535029E+00
     18 T   6 C     1.717362059450E-06 -2.526482408424E-01  1.343211940619E+00
     19 T   6 C    -4.999983230955E-01 -2.526479238249E-01  1.343212638102E+00
     20 T   6 C    -4.411177671748E-06  2.524673413817E-01  1.351210290960E+00
     21 T   6 C     2.499996629212E-01 -2.527535221452E-01  4.430144924876E-01
     22 T   6 C    -2.500035264435E-01  2.526188299141E-01  4.556266217311E-01
     23 T   6 C     2.499965523452E-01  2.526187935239E-01  4.556261418890E-01
     24 T   6 C    -2.500003039892E-01 -2.527535472070E-01  4.430148923957E-01
     25 T   6 C     2.499976836388E-01  4.973105391243E-01 -4.553002978412E-01
     26 T   6 C    -2.500030866577E-01  2.683138604642E-03 -4.426861334653E-01
     27 T   6 C    -2.500025683994E-01  4.973104068702E-01 -4.553008530585E-01
     28 T   6 C     2.499968133220E-01  2.683034410860E-03 -4.426872000497E-01
     29 T   6 C     4.999970152234E-01  4.974613513133E-01 -1.350892314921E+00
     30 T   6 C    -4.091543097812E-06  2.578849031374E-03 -1.342890032483E+00
     31 T   6 C    -2.793512274474E-06  4.974623733210E-01 -1.350889097084E+00
     32 T   6 C     4.999961237751E-01  2.577650220666E-03 -1.342885053678E+00
     33 T   6 C     4.999963046984E-01  2.499337780852E-01 -2.295774759541E+00
     34 T   6 C    -6.059416667814E-06 -2.497359600411E-01 -2.197273737227E+00
     35 T   6 C     4.999940803262E-01 -2.497354173269E-01 -2.197271485697E+00
     36 T   6 C    -2.951605614213E-06  2.499392713209E-01 -2.295776461739E+00
     37 T   6 C     2.499932923530E-01 -2.496448786668E-01 -3.059047395099E+00
     38 T   6 C    -2.500026600007E-01  2.499163056949E-01 -3.230160930184E+00
     39 T   6 C     2.499970317092E-01  2.499147382529E-01 -3.230163865333E+00
     40 T   6 C    -2.500080453806E-01 -2.496444082960E-01 -3.059048092309E+00
     41 T   6 C     2.499995771085E-01 -4.847633895781E-01 -4.051715249978E+00
     42 T   6 C    -2.499984238758E-01 -1.499319076081E-02 -4.052966372728E+00
     43 T   6 C    -2.500064306305E-01 -4.847641864056E-01 -4.051709704765E+00
     44 T   6 C     2.499992009363E-01 -1.499404790145E-02 -4.052965374703E+00
     45 T   6 C     4.999930513248E-01 -4.147908945561E-01 -4.875248710450E+00
     46 T   6 C     3.690291156780E-06 -8.504074740915E-02 -4.875969927119E+00
     47 T   6 C    -7.372564157393E-06 -4.148341515871E-01 -4.875116718259E+00
     48 T   6 C    -4.999960633442E-01 -8.500087184623E-02 -4.875867234249E+00
     49 T   8 O     4.998482946052E-01 -4.920286265363E-01 -6.218496449267E+00
     50 T   8 O    -3.933006014818E-05 -8.023177239393E-03 -6.219504883733E+00
     51 T   8 O    -1.561348628497E-04 -4.922016113728E-01 -6.218181216753E+00
     52 T   8 O     4.999596835580E-01 -7.860312284988E-03 -6.219222762935E+00
     53 T   8 O    -4.994193296237E-01  2.420520839822E-01  6.218713838042E+00
     54 T   8 O    -4.077481808272E-04 -2.420945247931E-01  6.219594886660E+00
     55 T   8 O     4.995933474500E-01 -2.420893956094E-01  6.219561241888E+00
     56 T   8 O     5.800753944981E-04  2.420777100727E-01  6.218708403166E+00
     57 T  32 GE    4.990694943534E-01 -4.997773660927E-01  7.756107659338E+00
     58 T  32 GE    5.196691398277E-04  2.439523406073E-04  7.805946574277E+00
     59 T  32 GE   -9.309141846011E-04 -4.997731929893E-01  7.756966177277E+00
     60 T  32 GE   -4.994817662450E-01  2.354872311212E-04  7.806476615633E+00
     61 T  32 GE   -5.574405295624E-04 -2.503901022054E-01 -7.805636064206E+00
     62 T  32 GE   -4.990290490385E-01  2.497470616471E-01 -7.756308983351E+00
     63 T  32 GE    9.713915103325E-04  2.496668635431E-01 -7.756517901025E+00
     64 T  32 GE    4.994442390366E-01 -2.502350247748E-01 -7.805922979017E+00

 T = ATOM BELONGING TO THE ASYMMETRIC UNIT
 INFORMATION **** fort.34 **** GEOMETRY OUTPUT FILE

 DIRECT LATTICE VECTORS CARTESIAN COMPONENTS (ANGSTROM)
          X                    Y                    Z
  -0.359300000000E+01  -0.359300000000E+01   0.000000000000E+00
   0.359300000000E+01  -0.359300000000E+01   0.000000000000E+00
   0.000000000000E+00   0.000000000000E+00   0.500000000000E+03


 CARTESIAN COORDINATES - PRIMITIVE CELL
 *******************************************************************************
 *      ATOM          X(ANGSTROM)         Y(ANGSTROM)         Z(ANGSTROM)
 *******************************************************************************
    1     6 C    -1.204657249144E+00 -2.388637155283E+00  4.875552079883E+00
    2     6 C    -5.927621942351E-01  5.930954639603E-01  4.876132015101E+00
    3     6 C    -2.389263143193E+00 -1.203402010878E+00  4.876091206344E+00
    4     6 C     5.918572588534E-01 -5.921511293777E-01  4.875578486317E+00
    5     6 C    -1.742799541511E+00 -5.358491947872E-02  4.053216632781E+00
    6     6 C     1.741492852950E+00  5.492826852334E-02  4.052055817218E+00
    7     6 C    -5.500433774677E-02 -1.741568541231E+00  4.052056470197E+00
    8     6 C     5.369652522317E-02  1.742910692248E+00  4.053215796351E+00
    9     6 C     8.983187434801E-01 -2.694803153545E+00  3.230452839856E+00
   10     6 C     8.967205593245E-01  8.997550306002E-01  3.059347873241E+00
   11     6 C     2.694818154755E+00 -8.983038433495E-01  3.230452371662E+00
   12     6 C    -8.997745020130E-01 -8.967397594501E-01  3.059348248462E+00
   13     6 C    -2.123290658104E-05 -3.592969315036E+00  2.296088378423E+00
   14     6 C    -1.201467995846E-03  1.192840244056E-03  2.197592612051E+00
   15     6 C     1.796477311437E+00 -1.796468605736E+00  2.296087540623E+00
   16     6 C    -1.797701662822E+00 -1.795306846904E+00  2.197594761881E+00
   17     6 C    -8.893691089682E-01 -2.703598801363E+00  1.351211535029E+00
   18     6 C    -9.077712998286E-01  9.077589588648E-01  1.343211940619E+00
   19     6 C    -2.704270015421E+00 -8.887420348152E-01  1.343212638102E+00
   20     6 C     9.071310069460E-01 -9.070993082232E-01  1.351210290960E+00
   21     6 C    -1.806392193943E+00  9.894616191721E-03  4.430144924876E-01
   22     6 C     1.805922126393E+00 -9.396785369615E-03  4.556266217311E-01
   23     6 C     9.421712554775E-03 -1.805896937708E+00  4.556261418890E-01
   24     6 C    -9.892402881771E-03  1.806394587348E+00  4.430148923957E-01
   25     6 C     8.885950897594E-01 -2.685078444388E+00 -4.553002978412E-01
   26     6 C     9.079016073676E-01  8.886205733547E-01 -4.426861334653E-01
   27     6 C     2.685095520144E+00 -8.885770636256E-01 -4.553008530585E-01
   28     6 C    -8.885984076278E-01 -9.078786929043E-01 -4.426872000497E-01
   29     6 C    -9.110640428939E-03 -3.583867910967E+00 -1.350892314921E+00
   30     6 C     9.280505484079E-03 -9.251103655378E-03 -1.342890032483E+00
   31     6 C     1.787392344432E+00 -1.787372270253E+00 -1.350889097084E+00
   32     6 C    -1.787224575481E+00 -1.805747569967E+00 -1.342885053678E+00
   33     6 C    -8.984746581212E-01 -2.694498787441E+00 -2.295774759541E+00
   34     6 C    -8.972795329437E-01  8.973230759119E-01 -2.197273737227E+00
   35     6 C    -2.693778085067E+00 -8.991793761563E-01 -2.197271485697E+00
   36     6 C     8.980424069750E-01 -8.980211967370E-01 -2.295776461739E+00
   37     6 C    -1.795199948474E+00 -1.251850374737E-03 -3.059047395099E+00
   38     6 C     1.796208843744E+00  3.102710208689E-04 -3.230160930184E+00
   39     6 C    -2.956803885214E-04 -1.796182989474E+00 -3.230163865333E+00
   40     6 C     1.306548044901E-03  1.795251266060E+00 -3.059048092309E+00
   41     6 C     9.529966606954E-01 -2.749493621797E+00 -4.051715249978E+00
   42     6 C     8.443738025822E-01  9.521148713894E-01 -4.052966372728E+00
   43     6 C     2.749515383500E+00 -9.529691729893E-01 -4.051709704765E+00
   44     6 C    -9.521207430740E-01 -8.443735148542E-01 -4.052965374703E+00
   45     6 C     3.061812824501E-01 -3.899131349270E+00 -4.875248710450E+00
   46     6 C    -3.055646646572E-01  3.055381462249E-01 -4.875969927119E+00
   47     6 C     2.102527382971E+00 -2.102474403724E+00 -4.875116718259E+00
   48     6 C    -2.101922276948E+00 -1.491106011861E+00 -4.875867234249E+00
   49     8 O     2.918622233833E-02 -3.621096067372E+00 -6.218496449267E+00
   50     8 O    -2.868596291503E-02  2.896858872725E-02 -6.219504883733E+00
   51     8 O     1.825080602900E+00 -1.823958617775E+00 -6.218181216753E+00
   52     8 O    -1.824597245064E+00 -1.768113040984E+00 -6.219222762935E+00
   53     8 O    -9.288932109140E-01 -2.668279486410E+00  6.218713838042E+00
   54     8 O    -8.683805883677E-01  8.713106667952E-01  6.219594886660E+00
   55     8 O    -2.664866095813E+00 -9.252116989632E-01  6.219561241888E+00
   56     8 O     8.677010013986E-01 -8.718694231835E-01  6.218708403166E+00
   57    32 GE    4.143230417338E-03 -3.590456616841E+00  7.756107659338E+00
   58    32 GE   -9.906504595989E-04 -2.743691979203E-03  7.805946574277E+00
   59    32 GE    1.800659692255E+00 -1.793970142924E+00  7.756966177277E+00
   60    32 GE   -1.797515908260E+00 -1.799208119503E+00  7.806476615633E+00
   61    32 GE   -8.976487534013E-01  9.016545210468E-01 -7.805636064206E+00
   62    32 GE   -9.026474343065E-01 -2.697329819303E+00 -7.756308983351E+00
   63    32 GE    8.935628310137E-01 -9.005432504070E-01 -7.756517901025E+00
   64    32 GE   -2.693597594874E+00 -8.954087068424E-01 -7.805922979017E+00

 ****    1 SYMMOPS - TRANSLATORS IN FRACTIONAL UNITS
 **** MATRICES AND TRANSLATORS IN THE CRYSTALLOGRAPHIC REFERENCE FRAME
   V INV                    ROTATION MATRICES                   TRANSLATORS
   1   1  1.00  0.00  0.00  0.00  1.00  0.00  0.00  0.00  1.00  0.00  0.00  0.00
 TTTTTTTTTTTTTTTTTTTTTTTTTTTTTT END         TELAPSE    34328.67 TCPU    34028.53
 EEEEEEEEEE TERMINATION  DATE 14 04 2021 TIME 03:59:04.8
NODE    0 CPU TIME =     34028.534
    TOTAL CPU TIME =   3838656.465
